ITEM: TIMESTEP
4080000
ITEM: NUMBER OF ATOMS
9276
ITEM: BOX BOUNDS pp pp pp
0.0000000000000000e+00 5.0000000000000000e+01
0.0000000000000000e+00 5.0000000000000000e+01
0.0000000000000000e+00 5.0000000000000000e+01
ITEM: ATOMS id type q x y z 
1 4 1.38327 0.022632 25.3328 21.4846 
2 3 -0.82686 7.62323 36.2722 21.7434 
3 3 -0.775824 36.7935 9.66142 13.7181 
4 4 1.69062 16.6637 5.39115 8.4474 
5 3 -0.631538 12.3817 36.3014 40.5741 
6 3 -0.752532 26.1844 33.3671 43.4875 
7 4 1.58731 0.253962 38.8742 32.9217 
8 3 -0.843501 38.1494 35.5369 9.06368 
9 3 -0.788268 1.01491 24.7448 13.8418 
10 4 1.62009 2.28957 22.6239 48.1033 
11 3 -0.722251 3.07573 18.0887 45.686 
12 3 -0.712667 1.85241 42.334 38.6593 
13 4 1.63227 37.8137 19.4184 24.8955 
14 3 -0.860119 27.2384 34.8062 11.5574 
15 3 -0.7159 46.6387 12.8348 5.90786 
16 4 1.649 5.72055 42.5818 14.1873 
17 3 -0.807282 10.0466 5.6176 31.3374 
18 3 -0.86647 27.3176 8.66173 19.8101 
19 4 1.43188 26.4337 23.47 35.4993 
20 3 -0.787703 32.3468 35.6716 24.5033 
21 3 -0.775767 40.919 13.1331 19.6177 
22 4 1.34107 34.8784 10.522 31.6637 
23 3 -0.823958 0.414408 39.5335 22.058 
24 3 -0.841412 46.643 36.4714 22.3019 
25 4 1.59245 26.3551 29.9669 15.1654 
26 3 -0.787464 3.9668 0.496185 48.4307 
27 3 -0.842327 0.156097 15.7212 18.7754 
28 4 1.61215 45.3609 44.5319 7.65379 
29 3 -0.690084 27.0473 40.3445 38.505 
30 3 -0.876179 40.4709 27.8483 49.4323 
31 4 1.53139 0.913739 37.371 8.82103 
32 3 -0.822584 29.3431 3.73157 6.82032 
33 3 -0.828627 23.9089 11.4868 16.3849 
34 4 1.55407 18.7678 28.6285 29.7839 
35 3 -0.880235 12.7995 27.8479 34.761 
36 3 -0.820291 42.6197 13.694 11.0298 
37 4 1.60741 44.0371 26.3039 48.5764 
38 3 -0.675925 17.5406 17.0115 16.9762 
39 3 -0.756677 4.62723 33.1112 36.1434 
40 4 1.50361 4.59906 45.2233 1.46548 
41 3 -0.743479 39.2342 18.4054 32.0036 
42 3 -0.795495 32.2846 40.2536 41.6818 
43 4 1.59397 44.3351 0.38275 7.94134 
44 3 -0.777821 37.3912 14.1585 44.0034 
45 3 -0.795914 7.88317 17.0134 47.8878 
46 4 1.54994 46.6298 10.8175 12.2914 
47 3 -0.836729 38.551 4.66062 10.6934 
48 3 -0.806242 34.9213 2.61543 26.5458 
49 4 1.39718 12.6268 45.7807 44.6883 
50 3 -0.788934 36.5444 35.4808 25.5058 
51 3 -0.815437 34.8182 42.6014 37.9596 
52 4 1.54731 19.6883 43.2937 16.5104 
ITEM: TIMESTEP
4085000
ITEM: NUMBER OF ATOMS
9276
ITEM: BOX BOUNDS pp pp pp
1.0468326359304214e-01 4.9895316736406727e+01
1.0468326359304214e-01 4.9895316736406727e+01
1.0468326359304214e-01 4.9895316736406727e+01