ITEM: TIMESTEP
4080000
ITEM: NUMBER OF ATOMS
9276
ITEM: BOX BOUNDS pp pp pp
0.0000000000000000e+00 5.0000000000000000e+01
0.0000000000000000e+00 5.0000000000000000e+01
0.0000000000000000e+00 5.0000000000000000e+01
ITEM: ATOMS id type q x y z 
1 4 1.38327 0.022632 25.3328 21.4846 
2 3 -0.82686 7.62323 36.2722 21.7434 
3 3 -0.775824 36.7935 9.66142 13.7181 
4 4 1.69062 16.6637 5.39115 8.4474 
5 3 -0.631538 12.3817 36.3014 40.5741 
6 3 -0.752532 26.1844 33.3671 43.4875 
7 4 1.58731 0.253962 38.8742 32.9217 
8 3 -0.843501 38.1494 35.5369 9.06368 
9 3 -0.788268 1.01491 24.7448 13.8418 
10 4 1.62009 2.28957 22.6239 48.1033 
11 3 -0.722251 3.07573 18.0887 45.686 
12 3 -0.712667 1.85241 42.334 38.6593 
13 4 1.63227 37.8137 19.4184 24.8955 
14 3 -0.860119 27.2384 34.8062 11.5574 
15 3 -0.7159 46.6387 12.8348 5.90786 
16 4 1.649 5.72055 42.5818 14.1873 
17 3 -0.807282 10.0466 5.6176 31.3374 
18 3 -0.86647 27.3176 8.66173 19.8101 
19 4 1.43188 26.4337 23.47 35.4993 
20 3 -0.787703 32.3468 35.6716 24.5033 
21 3 -0.775767 40.919 13.1331 19.6177 
22 4 1.34107 34.8784 10.522 31.6637 
23 3 -0.823958 0.414408 39.5335 22.058 
24 3 -0.841412 46.643 36.4714 22.3019 
25 4 1.59245 26.3551 29.9669 15.1654 
26 3 -0.787464 3.9668 0.496185 48.4307 
27 3 -0.842327 0.156097 15.7212 18.7754 
28 4 1.61215 45.3609 44.5319 7.65379 
29 3 -0.690084 27.0473 40.3445 38.505 
30 3 -0.876179 40.4709 27.8483 49.4323 
31 4 1.53139 0.913739 37.371 8.82103 
32 3 -0.822584 29.3431 3.73157 6.82032 
33 3 -0.828627 23.9089 11.4868 16.3849 
34 4 1.55407 18.7678 28.6285 29.7839 
35 3 -0.880235 12.7995 27.8479 34.761 
36 3 -0.820291 42.6197 13.694 11.0298 
37 4 1.60741 44.0371 26.3039 48.5764 
38 3 -0.675925 17.5406 17.0115 16.9762 
39 3 -0.756677 4.62723 33.1112 36.1434 
40 4 1.50361 4.59906 45.2233 1.46548 
41 3 -0.743479 39.2342 18.4054 32.0036 
42 3 -0.795495 32.2846 40.2536 41.6818 
43 4 1.59397 44.3351 0.38275 7.94134 
44 3 -0.777821 37.3912 14.1585 44.0034 
45 3 -0.795914 7.88317 17.0134 47.8878 
46 4 1.54994 46.6298 10.8175 12.2914 
47 3 -0.836729 38.551 4.66062 10.6934 
48 3 -0.806242 34.9213 2.61543 26.5458 
49 4 1.39718 12.6268 45.7807 44.6883 
50 3 -0.788934 36.5444 35.4808 25.5058 
51 3 -0.815437 34.8182 42.6014 37.9596 
52 4 1.54731 19.6883 43.2937 16.5104 
53 3 -0.774787 26.4216 39.2413 3.76104 
54 3 -0.769985 45.4659 15.8815 39.5058 
55 4 1.59896 31.3312 39.0657 6.85583 
56 3 -0.883462 34.4131 1.10278 4.76424 
57 3 -0.711981 43.0929 28.8708 44.4719 
58 4 1.6309 48.3469 26.5381 48.9579 
59 3 -0.831098 4.97921 44.2928 0.28566 
60 3 -0.582978 39.5297 35.38 42.8357 
61 4 1.51668 34.8972 20.835 13.9601 
62 3 -0.808186 24.8456 33.1503 31.6724 
63 3 -0.823538 30.2323 39.3298 10.2643 
64 4 1.5918 34.2186 12.9225 13.2008 
65 3 -0.818788 18.4994 20.8388 33.7918 
66 3 -0.795669 41.8507 34.4017 21.0692 
67 4 1.48675 29.1807 14.757 23.312 
68 3 -0.860296 22.8412 14.425 48.3004 
69 3 -0.76397 5.41575 32.7483 40.8792 
70 4 1.50464 8.62971 23.2713 8.33157 
71 3 -0.86154 41.7127 26.2832 2.9483 
72 3 -0.862599 23.9003 39.9574 27.2502 
73 4 1.4953 49.2502 49.7068 39.0714 
74 3 -0.717183 30.0674 30.1615 9.80756 
75 3 -0.840949 48.8079 4.58203 41.718 
76 4 1.54758 45.5872 2.89968 43.7754 
77 3 -0.798462 3.34794 2.5167 36.8438 
78 3 -0.79169 8.69718 5.44273 22.8534 
79 4 1.62832 30.3677 33.1055 16.3008 
80 3 -0.68852 20.8703 41.271 38.0214 
81 3 -0.870933 28.298 38.826 15.7165 
82 4 1.61294 38.3656 46.0623 49.9096 
83 3 -0.771272 4.03984 17.6382 40.8092 
84 3 -0.806836 20.1498 27.1905 4.10658 
85 4 1.3617 5.00632 17.1087 34.465 
86 3 -0.78522 13.6484 4.93271 3.95898 
87 3 -0.843317 17.4896 49.1279 6.48606 
88 4 1.73683 1.22912 29.5221 24.1229 
89 3 -0.769686 47.6233 6.91467 44.7506 
90 3 -0.918212 47.5331 3.70257 3.11918 
91 4 1.62463 10.5985 6.17565 34.9474 
92 3 -0.780108 35.4138 11.3093 24.0196 
93 3 -0.763242 32.8229 16.0586 30.3378 
94 4 1.47969 6.04966 22.6743 45.4689 
95 3 -0.728581 42.6165 13.8014 44.505 
96 3 -0.848092 46.3704 44.4266 6.43052 
97 4 1.25621 16.0639 29.7394 23.829 
98 3 -0.846206 13.4371 33.7061 22.6011 
99 3 -0.807806 35.2681 11.1986 20.8023 
100 4 1.41504 25.6176 21.2434 24.4283 
101 3 -0.770544 31.1325 13.6488 35.1496 
102 3 -0.803769 26.1891 49.1118 21.0253 
103 4 1.54837 10.1744 44.1844 14.9472 
104 3 -0.851337 22.5218 16.4155 41.3484 
105 3 -0.71551 17.7387 45.7238 9.07308 
106 4 1.65391 7.07463 39.8512 35.1906 
107 3 -0.803255 6.20925 36.9459 0.72217 
108 3 -0.779871 36.3274 28.8357 44.2577 
109 4 1.63251 31.2179 49.3244 6.32352 
110 3 -0.702943 21.3042 45.8801 34.2191 
111 3 -0.737944 22.9477 19.4183 34.9255 
112 4 1.28875 39.7426 6.75122 21.7294 
113 3 -0.875166 1.4368 22.6582 49.38 
114 3 -0.702297 21.3396 23.4423 29.9013 
115 4 1.52022 17.2905 1.39829 38.0158 
116 3 -0.745435 37.1852 19.1254 0.960339 
117 3 -0.814989 9.722 8.82226 23.1404 
118 4 1.55107 40.6029 43.1378 11.4744 
119 3 -0.691735 41.7056 49.0296 4.96618 
120 3 -0.924581 48.8525 28.4722 40.8376 
121 4 1.56883 34.8251 43.8053 2.61284 
122 3 -0.787753 18.9794 13.0169 25.6658 
123 3 -0.742333 30.009 40.1324 39.5815 
124 4 1.62084 34.6504 37.4378 7.52093 
125 3 -0.872726 41.4553 38.7113 46.0749 
126 3 -0.791091 22.104 24.5131 6.00119 
127 4 1.69017 26.1209 21.3568 16.7305 
128 3 -0.767889 17.0925 25.4756 28.1704 
129 3 -0.849065 48.1547 23.1208 27.4898 
130 4 1.53298 45.8977 38.8557 32.5694 
131 3 -0.839169 45.4728 18.2197 26.5888 
132 3 -0.790994 6.56609 4.3073 27.2679 
133 4 1.58633 42.5309 3.13925 12.9022 
134 3 -0.795352 2.43479 44.9731 29.0476 
135 3 -0.904432 23.587 17.5773 29.2046 
136 4 1.37227 46.985 14.0887 5.08174 
137 3 -0.736499 26.659 38.3377 46.0796 
138 3 -0.80951 20.9232 42.6098 2.33793 
139 4 1.65165 25.5648 7.61264 36.6249 
140 3 -0.691841 44.68 1.89261 25.1343 
141 3 -0.730966 9.49981 31.7102 41.2265 
142 4 1.51311 2.16983 28.6831 11.3934 
143 3 -0.810375 41.7802 0.817313 0.936041 
144 3 -0.811169 36.8004 45.4341 22.2566 
145 4 1.62167 38.3638 12.3542 26.2065 
146 3 -0.875424 23.743 22.6686 6.05126 
147 3 -0.823386 9.37414 8.98712 20.3571 
148 4 1.56852 30.8182 17.0583 36.4125 
149 3 -0.7582 15.0462 43.4461 42.3267 
150 3 -0.768921 4.43105 3.70457 14.5409 
151 4 1.42274 38.7166 45.1246 47.0173 
152 3 -0.814509 16.974 7.07492 15.1847 
153 3 -0.714058 41.254 47.8873 7.21629 
154 4 1.45352 37.473 46.6075 39.2415 
155 3 -0.809447 31.6527 39.6317 1.9077 
156 3 -0.850356 19.5131 40.2009 9.64465 
157 4 1.46343 10.7591 19.395 43.7382 
158 3 -0.858967 11.7569 17.7296 14.4 
159 3 -0.612273 47.3134 46.5072 40.8641 
160 4 1.55688 8.49736 1.70512 40.8808 
161 3 -0.784218 49.4376 9.66917 25.4247 
162 3 -0.730455 47.4119 11.4152 8.19153 
163 4 1.64895 35.1055 17.4606 10.2838 
164 3 -0.674255 17.1298 31.0186 24.0015 
165 3 -0.760544 9.72806 49.567 22.0469 
166 4 1.49626 15.9791 19.4484 41.1802 
167 3 -0.811921 22.4374 48.9443 7.11495 
168 3 -0.779122 4.60156 19.4855 47.1996 
169 4 1.52485 7.07353 1.012 5.00894 
170 3 -0.879515 9.94365 15.931 14.5017 
171 3 -0.697095 4.40951 36.3452 5.66352 
172 4 1.6102 37.1418 25.3678 35.7505 
173 3 -0.841139 23.6127 3.51289 38.1214 
174 3 -0.711485 14.3872 12.8514 14.012 
175 4 1.46497 2.64117 36.0219 34.7986 
176 3 -0.874407 28.8684 31.2043 24.3514 
177 3 -0.738936 28.5985 42.2735 22.8603 
178 4 1.46258 6.52462 12.6949 2.23934 
179 3 -0.744571 1.68216 32.6258 16.9326 
180 3 -0.776788 6.50168 47.8439 45.043 
181 4 1.56997 22.7124 36.5068 19.2469 
182 3 -0.794678 40.5001 19.4027 43.6897 
183 3 -0.802011 16.0003 29.6651 17.469 
184 4 1.59829 17.814 3.51532 32.2075 
185 3 -0.72668 11.4689 44.3549 38.8261 
186 3 -0.890665 36.1147 0.908022 16.351 
187 4 1.62997 38.5359 24.2452 38.2281 
188 3 -0.854858 10.0469 17.4151 3.5958 
189 3 -0.890465 6.89878 36.3119 42.5859 
190 4 1.38947 21.6123 12.9342 9.29422 
191 3 -0.518665 40.0564 37.3745 42.2391 
192 3 -0.812709 37.5027 22.2524 2.92566 
193 4 1.57913 37.2941 44.1989 42.972 
194 3 -0.830271 7.4279 24.7329 30.4994 
195 3 -0.878304 31.118 36.3587 45.5383 
196 4 1.47052 30.336 40.4519 1.79347 
197 3 -0.739658 41.1767 21.8649 42.9045 
198 3 -0.728463 12.0203 3.22923 5.01982 
199 4 1.39702 27.81 23.1495 32.8773 
200 3 -0.807016 4.8224 30.2703 9.0644 
201 3 -0.876268 30.5861 5.09407 8.70037 
202 4 1.50584 18.7658 42.7574 28.1254 
203 3 -0.799473 13.5882 34.6264 3.98658 
204 3 -0.892514 0.630103 2.90404 13.9123 
205 4 1.41065 33.9078 12.9937 43.5925 
206 3 -0.722981 16.625 0.248549 11.5789 
207 3 -0.823099 0.961752 18.837 27.9942 
208 4 1.55761 47.6743 34.8571 31.2442 
209 3 -0.8375 41.4162 35.1758 31.8594 
210 3 -0.695365 48.8931 35.6755 23.4623 
211 4 1.70295 1.80432 18.0786 16.7573 
212 3 -0.842772 45.5392 34.049 1.29079 
213 3 -0.848333 11.4296 10.2539 38.203 
214 4 1.67871 45.8654 24.6049 24.7799 
215 3 -0.721906 19.3429 44.0136 34.2002 
216 3 -0.849454 41.023 18.7331 15.497 
217 4 1.39499 49.7609 24.8623 12.801 
218 3 -0.860792 16.3686 22.3735 5.42887 
219 3 -0.825477 18.9454 31.8545 37.3609 
220 4 1.31622 42.719 49.8408 0.0884586 
221 3 -0.795188 43.4898 17.2583 39.3008 
222 3 -0.851481 44.6785 41.0558 7.28375 
223 4 1.12452 16.171 16.4028 1.16182 
224 3 -0.747892 16.0961 29.284 35.2239 
225 3 -0.797255 3.65639 18.9307 26.1197 
226 4 1.56429 12.3518 0.117057 32.3911 
227 3 -0.885631 18.1465 4.84658 45.5681 
228 3 -0.696765 21.7994 45.4298 11.9595 
229 4 1.49808 31.4696 17.2867 14.8546 
230 3 -0.582888 44.7243 44.8583 40.0727 
231 3 -0.808656 41.0853 26.1564 5.45681 
232 4 1.63886 16.138 26.6053 45.1236 
233 3 -0.73403 37.961 10.3815 46.0788 
234 3 -0.73628 2.03532 43.3724 49.7674 
235 4 1.63692 3.29683 47.4131 17.7016 
236 3 -0.807027 30.3158 1.60298 14.3344 
237 3 -0.892553 22.5864 15.9488 38.8712 
238 4 1.75093 6.07835 30.7782 49.8429 
239 3 -0.799432 46.4075 29.6717 48.6719 
240 3 -0.873291 1.68592 13.2395 43.5161 
241 4 1.46794 37.6571 11.7091 46.9168 
242 3 -0.774061 18.4827 2.21168 3.46277 
243 3 -0.820625 27.832 49.24 8.47988 
244 4 1.6015 9.02902 46.7733 6.67736 
245 3 -0.719077 36.3424 49.1158 49.0299 
246 3 -0.749214 36.0163 5.66319 32.8253 
247 4 1.50987 29.4995 48.0192 21.7942 
248 3 -0.775687 17.5755 13.6495 7.52666 
249 3 -0.74933 29.6921 22.7354 46.1362 
250 4 1.23841 32.8379 5.49582 35.4531 
251 3 -0.702187 12.2322 17.0422 28.3133 
252 3 -0.812241 10.4951 35.6672 27.8835 
253 4 1.41541 15.4826 13.6219 44.7632 
254 3 -0.806107 25.7371 16.1969 19.9074 
255 3 -0.80801 29.2347 18.7342 11.8584 
256 4 1.66487 31.6879 4.47765 2.36625 
257 3 -0.827085 23.3145 46.703 18.3913 
258 3 -0.80289 26.2432 17.4451 39.7716 
259 4 1.398 41.0023 9.80494 49.8937 
260 3 -0.69881 24.4357 26.6009 2.36476 
261 3 -0.867666 16.9372 23.4455 13.8891 
262 4 1.74238 18.8123 9.61551 43.6596 
263 3 -0.935818 0.739916 17.3038 25.1555 
264 3 -0.753576 1.81469 36.3929 15.1435 
265 4 1.57232 11.0681 1.70359 48.0598 
266 3 -0.818888 23.7843 32.5082 22.9978 
267 3 -0.804572 21.7028 36.5303 8.81613 
268 4 1.39397 21.0267 42.0749 47.0598 
269 3 -0.753261 0.647726 35.0478 11.662 
270 3 -0.77797 14.2439 2.32779 45.7654 
271 4 1.48972 27.2432 2.11713 48.1392 
272 3 -0.820971 15.8539 4.25426 14.5283 
273 3 -0.664245 42.4505 45.6118 15.4915 
274 4 1.46923 16.9169 47.6809 46.6589 
275 3 -0.913626 8.72228 16.1061 10.1702 
276 3 -0.713062 36.5485 36.5397 31.032 
277 4 1.57099 16.5014 23.6436 15.3809 
278 3 -0.798539 12.5297 26.2773 9.60626 
279 3 -0.665762 41.9041 43.7862 27.8323 
280 4 1.54957 37.2512 44.1007 21.6336 
281 3 -0.811895 6.78121 9.09825 11.6887 
282 3 -0.832383 28.2669 26.0306 20.0156 
283 4 1.5023 27.3108 34.8195 24.1816 
284 3 -0.846699 7.84602 47.3254 5.84515 
285 3 -0.739705 16.8509 48.3513 9.38503 
286 4 1.39844 19.2583 1.9713 27.3916 
287 3 -0.704081 49.0836 15.4424 41.0154 
288 3 -0.780694 43.727 49.7394 31.4544 
289 4 1.56196 35.8591 41.172 13.8499 
290 3 -0.705541 30.6323 23.127 28.2756 
291 3 -0.858224 38.4325 23.3854 32.0115 
292 4 1.69899 44.9404 29.2464 49.1 
293 3 -0.723457 34.8172 24.8278 0.510608 
294 3 -0.800667 40.3256 25.2172 24.3883 
295 4 1.52915 9.79811 28.5991 30.6712 
296 3 -0.800928 20.8149 21.6323 11.5169 
297 3 -0.808111 34.364 40.9108 18.1107 
298 4 1.59324 34.3479 23.8555 14.3135 
299 3 -0.773725 49.8468 2.14807 20.5007 
300 3 -0.70138 14.7383 36.3002 16.9447 
301 4 1.62292 7.46982 36.2842 23.2482 
302 3 -0.879847 16.9989 38.6088 5.77622 
303 3 -0.790125 29.1825 9.94178 1.49522 
304 4 1.56917 21.2447 8.30266 42.3756 
305 3 -0.794684 38.357 3.86305 38.3452 
306 3 -0.851551 34.762 38.9706 7.16886 
307 4 1.47723 39.0597 8.18743 40.206 
308 3 -0.738946 36.0871 46.1137 10.1142 
309 3 -0.680634 44.2576 42.5017 11.9574 
310 4 1.49977 20.9928 11.1116 12.8128 
311 3 -0.632881 8.10104 32.0458 6.06508 
312 3 -0.77153 34.1122 13.3252 19.6932 
313 4 1.48419 40.2017 5.0062 30.2801 
314 3 -0.773657 24.2946 24.392 22.7476 
315 3 -0.922309 5.38964 0.88416 14.5208 
316 4 1.05265 42.8113 44.6683 0.0769722 
317 3 -0.701241 20.4115 18.9764 24.4593 
318 3 -0.830578 2.8861 4.0998 35.0805 
319 4 0.970751 23.3711 15.3009 14.3601 
320 3 -0.764735 1.72936 11.7767 26.3871 
321 3 -0.83617 33.9708 13.0162 25.1038 
322 4 1.52845 36.6975 12.9596 31.6472 
323 3 -0.706426 41.3527 49.1727 27.4114 
324 3 -0.819158 32.9823 20.3606 5.19569 
325 4 1.42404 9.11449 6.83876 30.9752 
326 3 -0.885909 22.0734 30.0735 30.7924 
327 3 -0.797689 27.4995 34.0802 5.35646 
328 4 1.61456 34.1055 40.3512 6.94053 
329 3 -0.82262 48.2916 47.2254 35.207 
330 3 -0.838585 24.5334 15.9095 46.4472 
331 4 1.609 8.79212 25.9648 9.67899 
332 3 -0.826802 37.405 25.6666 32.0208 
333 3 -0.886716 13.7877 3.00227 30.7793 
334 4 1.34846 47.4071 17.647 45.8281 
335 3 -0.73739 41.8804 1.18483 46.3657 
336 3 -0.84488 10.0405 13.1429 43.3985 
337 4 1.50188 16.628 9.18563 11.8777 
338 3 -0.90578 31.6102 3.47871 18.4649 
339 3 -0.816148 49.5877 2.64053 33.312 
340 4 1.51706 9.80347 18.8546 26.3311 
341 3 -0.834356 44.7814 10.3048 37.5603 
342 3 -0.863125 38.4746 9.86507 2.45652 
343 4 1.57102 36.2444 35.6194 32.2465 
344 3 -0.665354 12.014 41.166 37.6645 
345 3 -0.858887 20.9651 2.92151 10.6324 
346 4 1.68346 36.6029 9.33882 33.9125 
347 3 -0.819176 44.5988 11.1729 44.3995 
348 3 -0.84101 45.3292 0.564122 9.17034 
349 4 1.5536 17.1241 25.9497 19.7116 
350 3 -0.846612 41.2491 40.5012 25.8283 
351 3 -0.772089 10.188 46.3366 31.6655 
352 4 1.64224 11.4934 17.9777 3.65078 
353 3 -0.751377 36.8732 43.7471 26.5702 
354 3 -0.754883 19.625 24.4354 46.3416 
355 4 1.55927 36.6119 3.38682 29.3687 
356 3 -0.766205 37.2049 35.3915 28.1329 
357 3 -0.816236 15.4511 48.2684 14.2012 
358 4 1.51086 31.8566 31.9939 26.0451 
359 3 -0.856751 36.6539 45.2276 17.966 
360 3 -0.763322 4.85233 22.2401 41.5743 
361 4 1.26412 1.3844 44.7154 48.9516 
362 3 -0.829079 19.3447 13.2669 42.8781 
363 3 -0.808888 30.1643 49.0301 22.8129 
364 4 1.21279 33.3242 25.702 29.4073 
365 3 -0.86269 9.27926 33.3525 23.0762 
366 3 -0.709692 1.27863 36.0336 35.5185 
367 4 1.50775 40.6595 22.1324 41.4405 
368 3 -0.776731 13.5211 45.642 37.4515 
369 3 -0.820873 34.2534 18.0023 29.2866 
370 4 1.42757 18.4747 20.7087 42.4618 
371 3 -0.882683 3.43413 40.1926 34.7319 
372 3 -0.765017 9.34425 6.74838 15.5548 
373 4 1.44875 43.7254 30.5735 17.8916 
374 3 -0.827072 4.18379 38.0275 39.279 
375 3 -0.792807 42.7474 19.8201 38.9401 
376 4 1.41054 5.95581 30.5643 13.9138 
377 3 -0.853917 35.3635 8.47422 42.6235 
378 3 -0.80658 12.1692 6.44426 9.68001 
379 4 1.38245 11.747 14.9162 11.7093 
380 3 -0.736677 30.2594 24.042 6.34419 
381 3 -0.787784 4.29257 46.4632 44.1358 
382 4 1.45103 14.2506 46.3924 36.2212 
383 3 -0.871176 17.8429 4.97796 31.7276 
384 3 -0.773036 41.7504 2.1667 35.7568 
385 4 1.53904 8.44195 16.5948 30.5892 
386 3 -0.91752 41.6132 36.3131 5.53186 
387 3 -0.799222 17.7758 22.3335 1.5515 
388 4 1.68163 41.842 14.2881 36.6632 
389 3 -0.724657 42.6396 14.1058 7.59591 
390 3 -0.68649 34.3287 46.0731 33.1454 
391 4 1.63521 42.9201 34.9914 32.1538 
392 3 -0.796819 28.7159 20.1078 21.8142 
393 3 -0.748749 40.4935 2.42776 42.4672 
394 4 1.43637 49.7557 39.5869 35.8569 
395 3 -0.747077 3.41446 24.786 12.1373 
396 3 -0.713261 2.90149 27.2686 35.7923 
397 4 1.29725 47.2419 31.7523 21.6056 
398 3 -0.804392 18.1633 43.039 5.67029 
399 3 -0.851819 22.0287 43.2202 47.0222 
400 4 1.45901 26.3154 32.9649 15.0841 
401 3 -0.808598 24.7959 33.8359 20.8404 
402 3 -0.824008 44.3429 31.8368 1.45506 
403 4 1.53814 49.0329 8.24191 6.54143 
404 3 -0.845045 0.582521 0.491224 14.5985 
405 3 -0.806888 1.23395 21.8802 44.2598 
406 4 1.42071 5.62442 42.7526 29.868 
407 3 -0.790395 36.3424 3.41253 33.4797 
408 3 -0.672514 43.0407 2.69791 37.9762 
409 4 1.68479 37.1738 0.134786 15.4851 
410 3 -0.824076 10.8431 27.6032 15.7447 
411 3 -0.750846 12.0835 41.1293 11.9324 
412 4 1.68824 8.04062 7.92497 3.33408 
413 3 -0.831788 42.6519 17.9889 36.198 
414 3 -0.796851 38.7377 38.1853 14.2225 
415 4 1.4414 46.8249 30.3269 6.72195 
416 3 -0.769662 38.0572 40.397 35.4757 
417 3 -0.836312 23.9686 45.0446 36.8221 
418 4 1.64588 18.457 12.3705 21.2263 
419 3 -0.839186 32.7378 43.2356 39.0055 
420 3 -0.81449 49.6268 31.3954 17.282 
421 4 1.55586 19.4558 6.01566 23.8919 
422 3 -0.859649 36.1488 29.9046 47.1704 
423 3 -0.770429 22.0006 27.2653 2.00269 
424 4 1.67861 3.93392 29.3228 1.50732 
425 3 -0.903374 42.4648 37.5141 7.52207 
426 3 -0.757987 44.8556 3.55522 47.8934 
427 4 1.48393 46.2029 0.304478 36.7962 
428 3 -0.821464 46.9332 27.7471 31.9911 
429 3 -0.807225 31.2319 7.04794 10.3064 
430 4 1.52603 40.8269 33.1298 10.7728 
431 3 -0.621016 7.28722 41.461 24.1367 
432 3 -0.783541 23.9039 36.1792 9.78315 
433 4 1.71877 47.2308 4.99123 2.39891 
434 3 -0.824143 47.8888 30.5786 15.8292 
435 3 -0.91688 19.4728 35.6411 4.94907 
436 4 1.57362 41.2663 16.7781 23.6448 
437 3 -0.761282 30.5959 40.0376 5.80693 
438 3 -0.871299 46.8903 3.56146 43.2969 
439 4 1.38347 32.6591 47.9879 8.62496 
440 3 -0.723827 23.7735 14.0887 12.5957 
441 3 -0.729462 16.1113 38.0567 44.0609 
442 4 1.49473 10.1011 31.8751 16.6081 
443 3 -0.808322 16.124 40.5801 32.2096 
444 3 -0.885848 21.6718 38.3543 47.6997 
445 4 1.5625 4.67103 10.2177 25.2262 
446 3 -0.848084 1.58019 26.7293 15.0696 
447 3 -0.853478 20.8107 35.9935 29.7124 
448 4 1.20133 24.4892 12.1389 41.5798 
449 3 -0.874588 3.36262 32.7311 18.749 
450 3 -0.725432 15.1139 40.6413 12.1685 
451 4 1.63149 47.5778 8.3715 13.8536 
452 3 -0.859347 45.1037 17.1199 36.8078 
453 3 -0.946938 11.8112 48.3764 21.503 
454 4 1.17576 31.3897 10.3724 43.4528 
455 3 -0.743645 28.2198 6.64153 27.335 
456 3 -0.873545 47.3533 7.43217 47.1112 
457 4 1.67377 33.5992 31.8866 33.7632 
458 3 -0.78639 35.5219 6.72904 19.6675 
459 3 -0.919069 40.756 19.1364 26.7945 
460 4 1.53436 7.95359 19.2123 12.1949 
461 3 -0.780668 34.0221 38.5847 41.3439 
462 3 -0.777192 16.0795 22.4521 16.2921 
463 4 1.49158 2.85821 45.8032 44.0677 
464 3 -0.71275 13.0168 3.56291 24.7265 
465 3 -0.726875 19.0637 18.6498 26.7166 
466 4 1.4685 39.9713 33.8854 45.8373 
467 3 -0.887637 23.7276 13.4391 45.6812 
468 3 -0.659549 24.9519 18.3092 26.408 
469 4 1.49856 37.1518 28.7587 6.1463 
470 3 -0.75128 41.4004 47.6283 20.4353 
471 3 -0.809372 9.88029 10.4166 18.579 
472 4 1.43889 44.7239 46.1757 24.9226 
473 3 -0.800238 7.73884 2.88175 44.0517 
474 3 -0.860356 6.50413 34.4001 33.1589 
475 4 1.52921 40.4322 29.0255 32.3129 
476 3 -0.972222 45.2797 42.2311 48.9361 
477 3 -0.783455 33.7179 9.28539 40.9606 
478 4 1.50186 15.0178 22.0388 6.01928 
479 3 -0.83362 5.68916 40.5301 35.5674 
480 3 -0.770923 14.3525 35.9639 14.234 
481 4 1.65318 21.4216 35.3107 12.4829 
482 3 -0.747131 46.5673 7.40049 33.524 
483 3 -0.752579 38.0598 4.19644 45.1453 
484 4 1.56451 7.08167 47.3203 12.814 
485 3 -0.853703 3.20833 34.2272 8.59205 
486 3 -0.788322 24.2577 28.1411 21.5437 
487 4 1.62172 35.409 46.1428 17.7139 
488 3 -0.703728 29.3393 7.61712 2.68947 
489 3 -0.781923 13.5873 16.7667 43.5314 
490 4 1.52271 39.5033 12.2608 32.7338 
491 3 -0.755474 19.7079 27.016 46.8667 
492 3 -0.720727 27.5591 21.7958 47.2151 
493 4 1.6455 7.79845 7.25288 35.6285 
494 3 -0.753919 16.1276 43.6508 18.1535 
495 3 -0.889316 24.3219 3.84137 40.4241 
496 4 1.57664 6.41295 47.7135 30.8963 
497 3 -0.824367 9.85412 32.2291 49.8087 
498 3 -0.756395 15.6583 11.0794 25.2114 
499 4 1.59209 33.6201 29.2127 14.6396 
500 3 -0.758333 6.946 25.5261 1.16915 
501 3 -0.549114 25.0671 37.925 35.5967 
502 4 1.43715 46.181 6.73475 34.8679 
503 3 -0.75489 16.1973 11.5266 17.5519 
504 3 -0.790503 2.17759 21.3904 18.714 
505 4 1.48017 23.7108 33.567 21.9376 
506 3 -0.844461 48.9423 6.66003 40.3542 
507 3 -0.748799 48.2969 11.0592 37.3075 
508 4 1.52365 8.86125 28.6315 37.5152 
509 3 -0.760356 23.4045 6.02056 49.1908 
510 3 -0.807918 30.3396 12.9625 1.30929 
511 4 1.61416 33.2745 17.5717 30.4238 
512 3 -0.871689 1.33868 2.50856 16.1741 
513 3 -0.953264 22.629 21.713 14.5687 
514 4 1.50388 31.4874 4.1644 47.7772 
515 3 -0.820435 49.4087 47.3724 17.6678 
516 3 -0.797973 16.6521 7.72503 41.9659 
517 4 1.1739 26.965 26.2668 29.7034 
518 3 -0.887029 47.8834 45.4682 4.78336 
519 3 -0.675796 34.3203 9.97392 46.4566 
520 4 1.49098 32.0275 46.9857 48.2988 
521 3 -0.686423 8.89266 10.3359 29.7846 
522 3 -0.848208 9.60678 16.7439 0.29589 
523 4 1.63775 1.54633 1.70859 9.88646 
524 3 -0.790537 14.9443 0.906575 41.3324 
525 3 -0.847871 9.64413 9.69566 45.4303 
526 4 1.44359 0.868128 3.93109 48.2756 
527 3 -0.952129 28.3135 26.4365 36.5596 
528 3 -0.820019 37.7924 0.784943 14.208 
529 4 1.69588 41.0006 0.721153 11.5492 
530 3 -0.798163 12.3901 38.3873 33.7803 
531 3 -0.8238 3.17105 44.4798 44.8718 
532 4 1.29265 28.9622 19.3352 31.826 
533 3 -0.832097 3.37691 26.4242 24.2865 
534 3 -0.791768 26.4772 41.4118 42.7791 
535 4 1.57421 33.1939 39.4599 1.75585 
536 3 -0.777747 22.1065 33.2542 48.417 
537 3 -0.850136 37.5731 7.07866 0.0744527 
538 4 1.6371 33.3389 9.23674 17.1014 
539 3 -0.823207 39.9487 48.6047 31.7824 
540 3 -0.780805 49.378 1.44307 1.31751 
541 4 1.55743 41.2022 13.7849 23.0158 
542 3 -0.818514 15.732 34.9436 48.7584 
543 3 -0.868317 49.942 47.1807 5.81481 
544 4 1.62451 41.3205 30.3337 9.08854 
545 3 -0.759536 34.8863 33.7599 42.6148 
546 3 -0.73798 40.1433 25.6281 42.8344 
547 4 1.23709 10.7662 33.6527 37.7212 
548 3 -0.844745 32.5124 11.0608 5.18246 
549 3 -0.889569 0.370801 40.4295 48.7732 
550 4 1.58694 30.979 27.6944 15.0763 
551 3 -0.784854 11.5109 11.1604 45.3893 
552 3 -0.823461 20.4252 34.1791 12.9958 
553 4 1.44902 13.678 9.16868 29.7447 
554 3 -0.812065 9.97961 25.6433 29.6472 
555 3 -0.812642 48.4555 46.2114 48.5841 
556 4 1.60214 40.9074 1.61984 18.2177 
557 3 -0.782764 20.7493 4.47109 17.6192 
558 3 -0.707283 0.188773 11.1124 34.317 
559 4 1.58648 9.37187 21.3891 10.741 
560 3 -0.89832 22.2531 25.9802 16.7933 
561 3 -0.865491 29.2666 19.6017 17.8225 
562 4 1.63956 35.98 20.482 26.9023 
563 3 -0.782953 11.1439 29.9692 3.57275 
564 3 -0.83157 8.64047 45.9091 2.50942 
565 4 1.26939 21.4205 4.15646 35.1603 
566 3 -0.847069 33.7636 37.5177 8.8038 
567 3 -0.713716 1.0611 32.9884 7.71283 
568 4 1.17553 9.47945 39.4874 16.8036 
569 3 -0.79818 5.29112 3.7796 6.93185 
570 3 -0.791609 29.3126 44.949 9.00627 
571 4 1.27078 2.2341 11.1739 37.6978 
572 3 -0.801222 6.24642 20.0194 30.5915 
573 3 -0.857478 25.8737 39.242 48.2218 
574 4 1.09047 47.6678 10.8629 31.9365 
575 3 -0.825761 34.3806 27.798 41.0732 
576 3 -0.76369 44.3552 42.3472 21.8063 
577 4 1.61702 5.1794 34.6985 16.1215 
578 3 -0.791612 30.1613 29.1271 23.6219 
579 3 -0.830609 45.9333 12.5213 19.8728 
580 4 1.6652 43.3819 28.8475 10.7791 
581 3 -0.871158 39.0703 18.8221 40.7326 
582 3 -0.782161 10.346 1.78567 29.7411 
583 4 1.53385 26.4838 1.05477 15.4553 
584 3 -0.741365 2.68052 15.4762 48.0116 
585 3 -0.765628 27.2655 9.88252 40.136 
586 4 1.47834 22.3259 10.5477 48.2084 
587 3 -0.744314 28.5064 45.7064 24.4717 
588 3 -0.911956 18.9758 34.2363 46.2323 
589 4 1.28432 46.8114 12.5841 41.3642 
590 3 -0.814781 2.70933 18.2921 37.2112 
591 3 -0.803268 0.197285 36.1298 40.5163 
592 4 1.61968 6.52062 7.9573 43.7965 
593 3 -0.720516 1.38684 45.351 26.9505 
594 3 -0.623831 23.5113 31.6252 3.62116 
595 4 1.2101 3.24629 16.5263 49.0304 
596 3 -0.818231 32.7597 26.2082 49.0775 
597 3 -0.897766 40.6177 20.88 38.3425 
598 4 1.40733 29.6525 42.2284 24.0273 
599 3 -0.789044 3.42263 26.8884 29.0735 
600 3 -0.794643 32.0958 34.2801 20.7896 
601 4 1.51601 49.0914 6.17841 35.4984 
602 3 -0.826763 35.5484 9.64361 32.8063 
603 3 -0.741463 45.5463 10.1455 48.7775 
604 4 1.67166 6.2617 29.7426 8.74246 
605 3 -0.846604 45.9681 40.164 23.5541 
606 3 -0.780818 38.0173 35.0764 35.7146 
607 4 1.58933 22.1072 42.0241 38.4947 
608 3 -0.680462 13.4745 10.3106 13.0985 
609 3 -0.757935 36.885 10.031 4.25967 
610 4 1.58394 41.7167 20.0972 26.1161 
611 3 -0.79085 27.3735 40.2016 21.9155 
612 3 -0.805732 47.6515 29.4965 46.4482 
613 4 1.3706 22.1841 36.1253 22.2803 
614 3 -0.70466 30.3032 47.4125 17.7168 
615 3 -0.90807 36.5021 36.8294 45.4536 
616 4 1.50696 23.5416 29.0063 14.2807 
617 3 -0.850321 36.6189 26.273 24.5126 
618 3 -0.710753 37.3668 9.03055 26.4669 
619 4 1.35633 18.649 47.6915 17.4293 
620 3 -0.856265 25.4792 6.60289 19.3615 
621 3 -0.835529 11.3567 12.4398 0.646361 
622 4 1.56584 11.8225 13.8839 22.9159 
623 3 -0.804791 22.1431 16.0231 10.1377 
624 3 -0.740871 38.9469 40.5979 24.1413 
625 4 1.54117 47.3222 21.5519 3.52201 
626 3 -0.822582 27.8566 3.20725 39.2583 
627 3 -0.845701 47.2739 23.6598 39.0839 
628 4 1.54271 4.74647 20.9844 47.6908 
629 3 -0.794692 30.6763 11.6743 12.7561 
630 3 -0.841932 27.0526 17.5004 25.4592 
631 4 1.55732 17.5312 6.28852 30.8699 
632 3 -0.780892 48.3702 21.8446 7.60151 
633 3 -0.828004 7.69736 13.5117 35.1447 
634 4 1.52975 43.7563 9.77534 7.826 
635 3 -0.807104 44.8144 25.1822 49.4208 
636 3 -0.765223 24.0421 28.2664 12.9722 
637 4 1.57122 30.0344 19.9514 14.5091 
638 3 -0.777751 20.2778 3.17574 27.3295 
639 3 -0.73 17.355 43.1914 32.6782 
640 4 1.5759 24.3672 2.78992 41.5017 
641 3 -0.83852 9.4821 7.96295 17.8761 
642 3 -0.751913 47.2806 31.7491 23.1455 
643 4 1.69279 6.16783 1.95778 19.9276 
644 3 -0.761438 12.5344 8.10343 26.3345 
645 3 -0.758733 16.0101 44.9265 11.1452 
646 4 1.61401 34.7752 41.0209 3.92839 
647 3 -0.794635 34.8199 11.8578 12.2629 
648 3 -0.755683 6.62981 36.5104 11.9408 
649 4 1.27977 18.4851 42.5576 41.8039 
650 3 -0.881725 17.7708 33.8016 4.35551 
651 3 -0.849785 34.6468 10.2613 6.27022 
652 4 1.52731 6.96244 22.0683 49.5103 
653 3 -0.824529 26.0731 2.94187 25.4362 
654 3 -0.896102 32.0887 38.3962 46.3393 
655 4 1.6139 42.8753 39.0472 10.8599 
656 3 -0.841129 43.5638 43.7081 20.1757 
657 3 -0.768926 28.648 24.8546 46.9918 
658 4 1.51367 41.2889 40.0717 45.3496 
659 3 -0.680197 45.9319 41.6336 38.9471 
660 3 -0.794122 5.69181 23.8797 5.28972 
661 4 1.58021 41.0657 26.4415 25.0696 
662 3 -0.831056 43.9641 31.9211 47.0744 
663 3 -0.768688 17.6925 42.7055 46.9857 
664 4 1.07123 42.2611 47.2172 38.9289 
665 3 -0.763278 45.3359 27.7932 23.224 
666 3 -0.777757 44.2515 0.00901299 49.9644 
667 4 1.55089 3.4905 41.0739 7.67136 
668 3 -0.800504 9.86985 5.56349 8.07195 
669 3 -0.677489 38.4483 33.869 45.7939 
670 4 1.48111 25.5262 25.3588 17.1685 
671 3 -0.799995 3.24287 40.5345 9.1213 
672 3 -0.973551 8.81301 35.9099 44.3089 
673 4 1.24415 19.9158 9.95211 39.8208 
674 3 -0.839138 3.77011 12.6869 44.9458 
675 3 -0.705145 5.76161 12.8138 10.9655 
676 4 1.61586 11.0088 19.6732 8.8677 
677 3 -0.829978 32.7713 5.12487 15.8503 
678 3 -0.510733 20.0707 40.5416 35.9343 
679 4 1.62871 43.6552 10.4118 12.3199 
680 3 -0.77917 18.544 11.4285 48.2563 
681 3 -0.807786 0.538087 18.5973 15.9836 
682 4 1.54071 2.20365 34.7909 11.7739 
683 3 -0.762454 6.0683 22.0049 3.67403 
684 3 -0.722543 47.3046 40.048 41.1428 
685 4 1.52635 6.5832 21.3689 29.9328 
686 3 -0.855459 20.4484 38.512 7.66653 
687 3 -0.807787 10.2522 19.4107 22.6876 
688 4 1.32759 45.8947 40.6098 42.6645 
689 3 -0.768161 4.82401 36.2634 8.59914 
690 3 -0.757476 13.9136 29.8591 11.4325 
691 4 1.51133 8.60147 23.7295 42.1882 
692 3 -0.76917 43.2028 4.23545 12.023 
693 3 -0.824542 40.8203 28.9724 16.8293 
694 4 1.65453 3.79464 36.2523 4.27569 
695 3 -0.688448 46.3086 2.39544 27.1185 
696 3 -0.764617 47.4634 43.9654 19.9465 
697 4 1.67114 40.8478 25.4053 2.03591 
698 3 -0.861586 49.5805 5.62645 36.8351 
699 3 -0.666255 2.34558 33.9073 37.2405 
700 4 1.26913 21.3227 29.946 9.99536 
701 3 -0.761269 13.49 25.4976 48.1102 
702 3 -0.745935 30.6879 36.154 26.2457 
703 4 1.34552 15.8646 47.4216 24.293 
704 3 -0.748435 25.3312 8.49465 44.5905 
705 3 -0.814637 28.8764 26.5614 1.48977 
706 4 1.67697 1.26148 26.668 45.3908 
707 3 -0.815071 25.5498 46.5072 42.615 
708 3 -0.90468 19.2775 46.6177 18.4102 
709 4 1.32396 1.98299 19.7273 32.1734 
710 3 -0.787879 31.6031 8.8461 39.4741 
711 3 -0.983969 2.33459 38.7464 47.921 
712 4 1.25845 36.3239 41.0651 21.5183 
713 3 -0.902824 1.5994 16.5928 16.9001 
714 3 -0.804522 32.4342 16.484 1.29336 
715 4 1.51543 42.3493 42.9215 42.449 
716 3 -0.781145 13.4964 5.80054 1.50292 
717 3 -0.816813 25.0916 2.75857 12.3534 
718 4 1.60173 26.1632 49.4168 37.5984 
719 3 -0.83359 9.32367 13.7428 26.6062 
720 3 -0.825453 4.04566 10.9144 26.4544 
721 4 1.30715 37.1995 29.0055 1.33205 
722 3 -0.829154 24.0226 16.6168 8.62655 
723 3 -0.882618 31.1943 23.7023 18.9261 
724 4 1.55132 33.7184 36.4586 27.7916 
725 3 -0.751715 23.8459 44.748 42.2237 
726 3 -0.825569 49.9882 3.97087 17.8767 
727 4 1.65785 13.7661 37.6638 33.5841 
728 3 -0.723624 13.1664 47.7847 8.54161 
729 3 -0.759117 25.9908 9.75293 24.5152 
730 4 1.39214 25.1329 5.99469 24.9502 
731 3 -0.822256 8.16489 16.0013 4.98694 
732 3 -0.700336 35.8597 46.8233 34.6365 
733 4 1.27928 47.5818 43.0201 41.8135 
734 3 -0.791238 39.2947 30.5319 29.1095 
735 3 -0.77526 19.4552 20.1167 0.573284 
736 4 1.57603 30.2535 41.736 47.3538 
737 3 -0.812792 48.3241 44.862 22.372 
738 3 -0.818144 7.14129 27.6782 33.239 
739 4 1.35355 45.0874 49.4634 45.681 
740 3 -0.863727 3.9814 30.6142 28.1536 
741 3 -0.748593 45.0607 43.2072 34.8745 
742 4 1.60451 36.86 24.9059 40.648 
743 3 -0.852761 42.8283 4.07208 21.2757 
744 3 -0.97218 19.4743 13.3868 1.98036 
745 4 1.49935 25.3798 38.7035 31.6413 
746 3 -0.816872 29.8238 31.3077 22.3003 
747 3 -0.689725 31.796 39.3782 22.4378 