258
Atoms. Timestep: 0
C 11.983 13.784 18.727
C 11.18 12.644 18.428
C 9.818 12.828 18.074
C 11.471 15.093 18.491
C 10.095 15.253 18.189
C 9.295 14.123 18
N 11.72 11.393 18.459
N 12.301 16.174 18.522
C 8.873 11.674 17.799
C 9.443 16.61 18.007
C 9.625 17.118 16.578
C 8.363 11.062 19.1
C 13.367 13.606 19.322
H 8.243 14.256 17.754
H 11.158 10.524 18.306
H 12.746 11.221 18.578
H 9.357 10.899 17.163
H 7.993 12.022 17.209
H 13.341 16.086 18.613
H 11.97 17.154 18.361
H 9.837 17.349 18.739
H 8.349 16.545 18.218
H 13.411 12.719 19.992
H 13.637 14.449 19.994
H 14.122 13.509 18.511
H 7.811 11.826 19.693
H 9.206 10.667 19.711
H 7.668 10.222 18.869
H 9.143 18.117 16.474
H 9.149 16.415 15.858
H 10.706 17.217 16.328
C 3.604 15.843 16.385
C 3.907 16.376 15.097
C 4.249 17.749 14.979
C 3.825 16.633 17.55
C 4.114 18.013 17.404
C 4.307 18.546 16.126
N 3.891 15.573 13.996
N 3.79 16.062 18.787
C 4.527 18.419 13.647
C 4.279 18.95 18.585
C 5.705 18.898 19.131
C 3.228 18.769 12.927
C 3.022 14.448 16.512
H 4.544 19.603 16.026
H 4.048 15.931 13.025
H 3.783 14.534 14.054
H 5.173 17.782 13.002
H 5.107 19.359 13.796
H 3.709 15.027 18.93
H 3.94 16.602 19.671
H 3.544 18.722 19.388
H 4.06 20 18.279
H 2.36 14.202 15.652
H 2.344 14.364 17.389
H 3.84 13.698 16.59
H 2.623 19.47 13.547
H 2.627 17.854 12.724
H 3.461 19.263 11.957
H 5.796 19.59 19.999
H 6.427 19.214 18.345
H 5.962 17.868 19.468
C 10.659 19.033 10.467
C 12.052 19.036 10.351
C 12.768 17.825 10.211
C 12.036 16.617 10.235
C 10.645 16.62 10.351
C 9.95 17.829 10.452
O 8.539 17.831 10.59
C 7.96 17.906 9.262
C 6.433 17.903 9.39
C 5.76 18.357 8.428
O 5.9 19.278 9.595
C 14.304 17.77 10.102
C 14.701 16.858 8.925
C 14.103 17.066 7.662
C 14.452 16.278 6.563
C 15.426 15.283 6.691
C 16.036 15.069 7.929
C 15.69 15.852 9.034
O 15.763 14.469 5.578
C 14.945 19.153 9.835
C 14.834 17.266 11.466
C 16.851 15.115 4.867
C 17.244 14.249 3.665
C 18.031 13.289 3.862
O 18.65 14.5 3.249
H 10.125 19.974 10.569
H 12.549 15.661 10.161
H 10.102 15.679 10.361
H 12.552 19.996 10.372
H 8.315 18.83 8.74
H 8.257 17.012 8.662
H 5.95 17.158 10.063
H 4.712 17.99 8.336
H 6.285 18.764 7.531
H 13.356 17.841 7.528
H 16.788 14.292 8.033
H 16.204 15.655 9.966
H 13.97 16.445 5.604
H 14.81 19.836 10.706
H 14.503 19.631 8.931
H 16.041 19.047 9.666
H 14.518 16.215 11.656
H 14.436 17.898 12.295
H 15.946 17.322 11.515
H 17.726 15.282 5.544
H 16.519 16.107 4.476
H 16.551 14.193 2.794
H 18.434 13.108 4.886
H 17.987 12.45 3.129
C 6.453 3.295 7.903
C 5.276 3.666 8.562
C 5.211 3.676 9.974
C 6.355 3.263 10.693
C 7.528 2.895 10.03
C 7.585 2.924 8.633
O 8.769 2.531 7.959
C 9.585 3.715 7.762
C 10.874 3.309 7.04
C 11.513 4.203 6.427
O 10.693 3.304 5.562
C 3.934 4.054 10.75
C 4.288 5.064 11.858
C 5.046 6.21 11.528
C 5.369 7.163 12.496
C 4.918 7.01 13.81
C 4.159 5.889 14.155
C 3.834 4.931 13.191
O 5.265 7.968 14.798
C 2.857 4.72 9.86
C 3.335 2.736 11.298
C 4.232 8.989 14.811
C 4.577 10.032 15.879
C 4.255 9.786 17.07
O 3.361 10.745 16.357
H 6.486 3.297 6.818
H 6.34 3.227 11.779
H 8.397 2.586 10.602
H 4.427 3.941 7.949
H 9.018 4.477 7.169
H 9.867 4.157 8.748
H 11.436 2.416 7.4
H 12.601 4.02 6.271
H 11.119 5.247 6.407
H 5.396 6.364 10.511
H 3.812 5.764 15.177
H 3.23 4.089 13.507
H 5.964 8.029 12.224
H 2.455 4.004 9.106
H 3.271 5.608 9.328
H 1.998 5.063 10.482
H 4.009 2.273 12.055
H 3.193 2.001 10.471
H 2.336 2.907 11.762
H 3.227 8.536 15.002
H 4.198 9.512 13.825
H 5.428 10.728 15.696
H 3.717 8.839 17.31
H 4.843 10.304 17.863
C 12.398 10.732 14.282
C 11.289 10.396 13.499
C 10.487 11.403 12.914
C 10.818 12.751 13.179
C 11.927 13.08 13.961
C 12.73 12.071 14.503
O 13.844 12.405 15.313
C 15.006 12.513 14.452
C 16.222 12.88 15.31
C 17.366 12.633 14.848
O 16.875 11.669 15.878
C 9.242 11.09 12.062
C 9.29 11.915 10.762
C 10.466 11.897 9.979
C 10.544 12.611 8.781
C 9.441 13.337 8.322
C 8.266 13.36 9.077
C 8.182 12.649 10.277
O 9.529 14.08 7.116
C 9.148 9.601 11.647
C 8.006 11.408 12.938
C 9.116 13.213 6.027
C 9.191 13.996 4.712
C 8.218 14.731 4.407
O 8.276 13.426 3.686
H 13.006 9.945 14.72
H 10.211 13.556 12.775
H 12.166 14.123 14.148
H 11.075 9.344 13.363
H 15.176 11.547 13.912
H 14.856 13.328 13.702
H 16.125 13.699 16.06
H 18.208 13.244 15.247
H 17.464 12.139 13.852
H 11.333 11.329 10.301
H 7.409 13.928 8.726
H 7.243 12.687 10.815
H 11.462 12.595 8.202
H 8.981 8.944 12.533
H 10.075 9.272 11.124
H 8.289 9.446 10.954
H 7.941 12.498 13.159
H 8.07 10.865 13.91
H 7.063 11.084 12.441
H 8.084 12.819 6.202
H 9.812 12.344 5.945
H 10.192 14.244 4.291
H 7.33 14.778 5.081
H 8.431 15.578 3.715
C 14.291 5.533 9.815
C 14.073 4.704 10.921
C 13.912 5.252 12.214
C 14.02 6.654 12.358
C 14.236 7.476 11.25
C 14.358 6.92 9.974
O 14.598 7.754 8.852
C 13.314 8.125 8.288
C 13.552 9.032 7.077
C 12.632 9.134 6.226
O 13.762 8.24 5.834
C 13.693 4.384 13.468
C 12.514 4.949 14.282
C 11.293 5.222 13.626
C 10.191 5.712 14.33
C 10.272 5.916 15.711
C 11.468 5.643 16.38
C 12.575 5.154 15.681
O 9.159 6.435 16.421
C 13.346 2.913 13.136
C 15.027 4.382 14.253
C 8.354 5.313 16.87
C 7.149 5.846 17.652
C 7.312 6.129 18.866
O 6.625 4.831 18.605
H 14.408 5.095 8.829
H 13.932 7.115 13.338
H 14.31 8.552 11.383
H 14.034 3.637 10.743
H 12.744 7.207 7.993
H 12.716 8.699 9.037
H 14.278 9.874 7.168
H 12.625 10.06 5.606
H 11.689 8.552 6.361
H 11.194 5.058 12.557
H 11.536 5.806 17.452
H 13.472 4.945 16.25
H 9.266 5.928 13.804
H 14.208 2.392 12.655
H 12.464 2.852 12.457
H 13.1 2.352 14.068
H 15.266 5.399 14.641
H 15.866 4.063 13.591
H 14.993 3.669 15.109
H 8.962 4.613 17.497
H 7.964 4.745 15.992
H 6.333 6.361 17.095
H 8.309 5.968 19.34
H 6.606 6.872 19.304
258
Atoms. Timestep: 50000
C 11.3873 13.8151 13.6641
C 10.6012 14.59 14.5392
C 11.2093 15.7611 15.1558
C 12.6563 14.2324 13.2142
C 13.1723 15.4354 13.8117
C 12.4723 16.1553 14.7566
N 9.23056 14.4604 14.7621
N 13.4357 13.5117 12.3187
C 10.5245 16.5102 16.2991
C 14.536 16.0365 13.4831
C 14.4267 17.0078 12.2794
C 10.5332 15.5449 17.4547
C 10.7273 12.5179 13.1483
H 12.9099 16.9881 15.2385
H 8.45251 14.8116 15.321
H 8.74264 13.8359 14.1232
H 9.57493 16.9787 15.9682
H 10.8982 17.4692 16.5011
H 13.0758 12.5943 11.9897
H 14.4053 13.5614 12.014
H 15.3045 15.1433 13.2781
H 14.9347 16.5405 14.4094
H 10.1135 11.9635 13.8188
H 11.5057 11.9098 12.6844
H 9.98901 12.7118 12.4051
H 10.1188 14.5607 17.153
H 10.0702 15.8708 18.3423
H 11.504 15.2819 17.8759
H 15.3681 17.5861 12.114
H 13.6278 17.7234 12.3929
H 14.2054 16.6044 11.2908
C 3.31725 10.7681 10.591
C 4.49665 11.2925 10.1591
C 5.67763 10.4895 10.1866
C 3.32533 9.7874 11.6305
C 4.59287 9.17498 11.9997
C 5.66518 9.46063 11.2209
N 4.65833 12.6804 9.89124
N 2.2198 9.65162 12.4117
C 6.75892 10.458 9.14764
C 4.81337 8.31582 13.2136
C 4.83398 9.19233 14.4878
C 7.89644 11.3282 9.6646
C 2.01518 11.0348 9.79885
H 6.44197 8.75478 11.4161
H 5.60658 13.1905 9.68308
H 6.01859 14.7011 11.121
H 6.42358 10.8845 8.16208
H 7.02539 9.39209 8.93336
H 1.30388 10.1182 12.3385
H 2.14547 8.96294 13.2109
H 5.72669 7.73337 13.0046
H 4.08498 7.4968 13.3096
H 1.30878 11.6048 10.3967
H 1.42426 10.2098 9.47404
H 2.16156 11.7787 9.00341
H 8.83791 11.2302 9.18886
H 8.33007 11.0952 10.6548
H 7.69024 12.4795 9.72304
H 3.91921 9.77402 14.7619
H 5.46534 10.0566 14.3902
H 5.0304 8.59415 15.3589
C 12.2447 22.257 12.2796
C 12.4767 22.2233 13.645
C 12.1141 21.052 14.3887
C 11.532 19.9496 13.7586
C 11.4285 19.9864 12.3705
C 11.8059 21.1034 11.6228
O 11.7083 21.1244 10.2571
C 12.8258 21.3162 9.19443
C 14.1244 20.7699 9.55325
C 15.3248 21.6659 9.54222
O 15.3191 20.6986 8.54195
C 12.2385 20.995 15.8853
C 13.1228 19.7725 16.3653
C 14.4032 19.5767 15.8585
C 15.1624 18.439 16.2251
C 14.6469 17.4433 17.0782
C 13.4164 17.7318 17.6094
C 12.6644 18.8781 17.3104
O 15.2492 16.2433 17.4391
C 12.8232 22.2654 16.5171
C 10.8036 20.9703 16.4533
C 15.9284 15.1592 16.8128
C 17.4416 15.034 17.0695
C 18.3038 15.3752 15.8927
O 18.0847 14.0021 16.1688
H 12.4686 23.1582 11.7523
H 11.1327 19.1141 14.2734
H 11.0162 19.0849 11.8768
H 12.8071 23.0813 14.1574
H 12.2935 20.8993 8.35071
H 12.8153 22.435 9.08686
H 14.0469 19.8603 10.1295
H 16.2217 21.5978 10.2117
H 15.2565 22.7339 9.30259
H 14.8006 20.2802 15.1088
H 13.0721 16.9874 18.2734
H 11.6579 19.0811 17.6831
H 16.1796 18.3531 15.8714
H 13.8763 22.4763 16.2644
H 12.9263 22.1028 17.6016
H 12.2175 23.0857 16.2977
H 10.0076 21.3473 15.7926
H 10.662 21.4912 17.3749
H 10.3927 19.9591 16.6139
H 15.7573 15.2488 15.7471
H 15.5351 14.1737 17.1078
H 17.7451 15.1628 18.0713
H 17.8736 15.8189 15.0065
H 19.3294 15.6842 15.9895
C 7.31808 5.67317 13.0711
C 7.90586 6.73637 13.7601
C 8.91903 7.4974 13.2226
C 9.3414 7.25713 11.9088
C 8.80322 6.20205 11.2093
C 7.82929 5.38005 11.8045
O 7.30996 4.28478 11.1624
C 6.01635 3.98106 10.5191
C 5.29257 5.20559 10.0209
C 4.02485 5.6487 10.6604
O 3.95801 5.26662 9.29596
C 9.52204 8.54557 14.1446
C 8.71402 9.82061 14.1272
C 8.10735 10.5885 15.1659
C 7.262 11.7091 14.9907
C 6.8372 12.3295 13.8197
C 7.46752 11.6007 12.8359
C 8.19427 10.3773 12.9538
O 5.93169 13.348 13.7054
C 9.51687 8.05947 15.6073
C 10.957 8.75869 13.6578
C 4.74062 13.2547 12.839
C 4.25653 14.3049 11.8528
C 3.68691 13.5186 10.6801
O 5.18172 15.2695 11.4082
H 6.46748 5.11716 13.4777
H 10.042 8.00579 11.4078
H 9.22051 6.0722 10.281
H 7.43125 6.95643 14.7211
H 6.19119 3.32692 9.72715
H 5.50459 3.41363 11.2925
H 5.99897 5.985 9.7311
H 3.96738 6.7542 10.9942
H 3.55098 5.04395 11.4219
H 8.32019 10.2178 16.1381
H 7.15296 11.8921 11.8276
H 8.62073 9.77468 12.1361
H 6.90133 12.3446 15.8276
H 9.75197 7.04687 15.616
H 8.51482 7.96433 16.1208
H 10.2086 8.57503 16.3382
H 11.0637 9.06826 12.6347
H 11.479 7.86351 13.8341
H 11.5889 9.42987 14.1926
H 3.94447 12.9078 13.5541
H 4.96182 12.3086 12.3673
H 3.51139 14.9135 12.4065
H 2.85638 12.8425 10.9313
H 3.35604 14.2144 9.88998
C 16.3711 13.9726 9.58404
C 15.2664 14.531 8.91133
C 15.1052 15.9134 8.79928
C 16.0607 16.7054 9.48348
C 17.0954 16.1805 10.2593
C 17.2679 14.7906 10.2758
O 18.3412 14.2744 10.9481
C 18.7118 13.9265 12.3951
C 17.5408 13.586 13.2409
C 16.8029 12.3299 12.9497
O 16.0499 13.5473 12.9438
C 13.9979 16.5694 7.88892
C 12.8006 16.7823 8.77778
C 11.8662 17.8168 8.44337
C 10.7016 18.0206 9.19395
C 10.4619 17.2073 10.3108
C 11.3629 16.1592 10.6295
C 12.5177 15.9813 9.88832
O 9.31972 17.3713 11.0272
C 14.5521 17.8994 7.34326
C 13.5106 15.7568 6.66805
C 8.24655 16.3491 11.1309
C 8.4123 15.2097 10.2278
C 7.55897 15.2505 9.03451
O 7.12951 14.1479 9.89113
H 16.5735 12.9362 9.5713
H 16.0413 17.7564 9.4791
H 17.6887 16.8631 10.8143
H 14.5201 13.9453 8.38187
H 19.5195 13.155 12.4619
H 19.1534 14.8481 12.7312
H 17.7536 13.8725 14.3364
H 16.5801 11.5724 13.6605
H 16.9802 11.8538 11.9728
H 12.0797 18.3555 7.52782
H 11.0899 15.3972 11.3751
H 13.1554 15.1908 10.0941
H 9.86776 18.7225 8.99062
H 13.8988 18.4416 6.6354
H 15.5578 17.846 6.88456
H 14.6735 18.5481 8.23997
H 14.1076 14.9029 6.31677
H 13.0923 16.3852 5.86276
H 12.6157 15.1704 6.86663
H 7.32369 16.9574 11.0043
H 8.0799 16.1389 12.1829
H 9.36496 14.7728 10.1755
H 6.80311 16.0204 8.93992
H 7.85635 14.9144 8.02165
C 6.27191 24.7402 7.72426
C 7.25434 23.9776 8.30376
C 7.04015 23.4341 9.60309
C 5.80136 23.7024 10.1972
C 4.83917 24.5066 9.61692
C 5.03152 0.0411875 8.35293
O 4.09596 0.850285 7.76097
C 2.70675 0.821265 7.29972
C 1.6825 1.44435 8.15661
C 2.1586 2.79902 8.67473
O 1.74822 1.88055 9.61007
C 8.15146 22.6737 10.3228
C 8.59639 23.4422 11.5857
C 8.39213 24.8196 11.6618
C 8.83446 0.517565 12.8115
C 9.50796 24.8721 13.8473
C 9.63023 23.4825 13.7828
C 9.17377 22.7907 12.6926
O 9.93002 0.471843 15.0115
C 7.6962 21.1837 10.4002
C 9.4267 22.7729 9.45659
C 9.24057 0.747038 16.284
C 7.83705 0.297152 16.5498
C 6.69225 1.09132 15.9657
O 6.88257 1.19205 17.3517
H 6.46438 0.146733 6.79002
H 5.63669 23.3154 11.1598
H 3.93135 24.766 10.1167
H 8.21167 23.7535 7.86646
H 2.7174 1.07516 6.24976
H 2.51738 24.7515 7.22787
H 0.672116 1.11515 7.96437
H 1.65751 3.77995 8.49649
H 3.2097 3.08445 8.62834
H 7.95211 0.371738 10.8629
H 10.1212 22.8853 14.5225
H 9.33314 21.6862 12.6401
H 8.70974 1.60285 12.8715
H 7.05391 20.993 11.2642
H 8.44172 20.4506 10.3896
H 7.05557 20.9309 9.56432
H 9.85494 23.7089 9.33749
H 9.18686 22.3762 8.47071
H 10.2602 22.181 9.90985
H 9.42094 1.80153 16.3891
H 9.98116 0.261345 17.0482
H 7.75432 24.2073 16.6871
H 6.89665 2.01068 15.3592
H 5.69538 0.684844 15.7329
258
Atoms. Timestep: 100000
C 14.5011 2.20249 4.66253
C 13.8602 1.94776 5.91786
C 12.9536 0.920084 6.07898
C 13.7987 1.76845 3.51081
C 12.8876 0.667745 3.61179
C 12.4601 0.325601 4.89571
N 14.0759 2.66265 7.10469
N 13.7714 2.43667 2.28892
C 12.4675 0.295018 7.3968
C 12.5135 24.8788 2.4067
C 13.5979 23.7849 2.09275
C 13.8058 24.7615 7.98729
C 15.9517 2.68309 4.65284
H 11.8456 24.4686 5.09824
H 14.0026 2.62204 8.1373
H 14.6695 3.45015 7.01019
H 11.6972 24.5485 7.37728
H 11.909 1.03188 7.96503
H 13.498 2.17842 1.3674
H 13.18 3.7866 24.5502
H 12.3321 0.551676 1.52159
H 11.5195 24.4094 2.35567
H 16.4539 2.72547 3.73954
H 16.5815 2.26886 5.38556
H 16.0443 3.78033 4.87729
H 14.39 0.523755 8.47911
H 14.4269 24.4445 7.13794
H 13.6437 24.0041 8.77138
H 13.8793 23.1806 2.99474
H 14.4786 24.1036 1.61921
H 13.1545 23.0058 1.50735
C 15.9513 5.87348 14.1851
C 15.1019 6.71411 13.4186
C 14.6105 7.55433 14.4379
C 15.3723 5.18715 15.33
C 14.5097 5.82472 16.2816
C 14.4696 7.11909 15.8192
N 14.8232 6.60949 12.0661
N 15.7032 3.83084 15.512
C 14.4332 9.07411 14.1319
C 14.2015 5.4373 17.7027
C 15.3614 6.05798 18.5167
C 12.9648 9.44408 14.3681
C 17.4856 5.97849 13.9484
H 14.0999 7.88015 16.4739
H 12.7049 5.65804 10.4286
H 14.0924 5.07807 8.41817
H 14.8702 9.31862 13.1511
H 15.0292 9.67871 14.7812
H 16.5301 3.40486 15.0679
H 15.4935 3.1839 16.2252
H 14.0748 4.39655 17.8542
H 13.2306 5.78478 18.0638
H 18.1029 5.9791 14.8456
H 17.3954 7.03428 13.5548
H 18.0093 5.2298 13.2652
H 12.8064 10.3477 14.9169
H 12.475 8.82937 15.065
H 12.4449 9.54371 13.4669
H 15.1394 5.93589 19.5597
H 15.5175 7.11999 18.3352
H 16.3085 5.56179 18.2818
C 7.49694 10.8171 18.0729
C 6.79641 11.6688 18.8909
C 6.2994 12.8333 18.3013
C 6.72139 13.2901 17.0684
C 7.47571 12.4053 16.2816
C 7.79636 11.1175 16.7106
O 8.45347 10.2081 15.9763
C 7.64817 8.97223 15.6049
C 6.3196 8.73816 16.2333
C 6.05963 7.35912 16.8088
O 5.39357 7.68387 15.6499
C 5.37916 13.6375 19.1687
C 4.65698 12.656 20.1283
C 4.06783 11.5249 19.587
C 3.40543 10.6075 20.3906
C 3.31247 10.7318 21.8059
C 3.95912 11.8484 22.3548
C 4.55623 12.7796 21.5152
O 2.80036 9.77592 22.5864
C 6.31321 14.7026 19.7845
C 4.32079 14.348 18.3317
C 1.33724 9.40962 22.9733
C 0.269548 10.4172 22.9002
C 0.0827425 11.0692 21.5365
O 0.534977 11.8423 22.5887
H 7.90053 9.89353 18.4581
H 6.39859 14.2075 16.6665
H 7.73401 12.5985 15.2579
H 6.688 11.4443 19.8927
H 7.62502 8.95866 14.5121
H 8.21466 8.02211 15.7309
H 5.71657 9.6066 16.5043
H 5.53786 7.17515 17.7755
H 6.78998 6.54756 16.6972
H 4.05808 11.2789 18.5228
H 3.95208 12.0523 23.4193
H 5.05147 13.6534 21.8509
H 2.95648 9.73464 19.9752
H 5.9628 15.7233 19.868
H 7.17388 14.7996 19.1579
H 6.76445 14.3778 20.7095
H 4.11694 13.8674 17.3286
H 4.56752 15.3898 18.1253
H 3.37091 14.4422 18.8488
H 1.4544 8.98031 23.9803
H 1.04886 8.58551 22.3724
H 24.3737 10.2059 23.5565
H 0.856794 11.0153 20.7355
H 24.0703 11.1674 21.1218
C 5.3685 3.30371 12.2804
C 6.05386 3.72058 11.1582
C 6.65359 2.80515 10.2638
C 6.52748 1.4474 10.617
C 5.90469 1.00722 11.7595
C 5.28085 1.94392 12.624
O 4.60164 1.49455 13.7093
C 3.16652 1.27095 13.8954
C 2.21871 2.1086 13.1436
C 1.42703 3.04873 14.0156
O 0.730468 2.02816 13.3437
C 7.32614 3.23053 8.95333
C 8.86707 3.37511 9.13467
C 9.51639 3.20214 10.3062
C 10.9219 2.89059 10.4861
C 11.8964 3.10484 9.55273
C 11.2355 3.44035 8.3921
C 9.81258 3.60598 8.17734
O 13.2784 2.95035 9.76858
C 7.045 2.13238 7.88923
C 6.68586 4.55334 8.44043
C 14.1995 3.70159 10.6757
C 15.0581 4.76768 10.0698
C 15.5943 5.52221 11.266
O 14.2433 5.63811 9.18939
H 4.84602 4.00652 12.8916
H 6.83098 0.654867 10.0319
H 5.82772 24.9671 12.0271
H 6.10286 4.8003 11.0059
H 3.08288 0.134233 13.7622
H 2.87686 1.24943 14.9997
H 2.45132 2.21239 12.0755
H 1.24604 4.1021 13.8272
H 1.50963 2.98246 15.1063
H 8.89416 3.07589 11.1753
H 11.8593 3.70688 7.57073
H 9.48055 3.67951 7.16848
H 11.1994 2.51803 11.4356
H 6.04188 1.83821 7.73884
H 7.58654 1.24867 8.15417
H 7.35382 2.30473 6.87056
H 5.58798 4.45677 8.36189
H 7.08735 4.87793 7.50947
H 6.9657 5.39334 9.08307
H 14.8302 2.98809 11.2187
H 13.5853 4.09553 11.3852
H 15.8312 4.38712 9.41228
H 15.9571 4.80923 12.0275
H 16.4656 6.0707 11.0013
C 13.6668 6.49447 3.86374
C 12.4684 6.89212 4.50852
C 11.4601 7.68216 3.92221
C 12.0333 8.3184 2.86931
C 13.333 7.97449 2.28916
C 14.2345 6.98554 2.66702
O 15.3828 6.66499 2.01623
C 15.324 5.7192 0.837706
C 14.2264 4.67542 0.953183
C 14.6011 3.66982 2.01624
O 14.13 3.83363 24.7843
C 9.93197 7.71404 4.44621
C 10.0021 7.74233 5.93149
C 10.1172 6.53205 6.66675
C 10.1201 6.64721 8.05174
C 10.1424 7.8754 8.77951
C 9.95479 9.02159 8.01935
C 9.86432 8.96702 6.63063
O 10.2873 7.97288 10.0943
C 9.22684 8.91134 3.89081
C 9.37976 6.38868 3.89067
C 11.6656 8.29144 10.6079
C 12.3655 7.29845 11.4758
C 13.8269 7.48822 11.3169
O 12.0567 5.87265 11.1156
H 14.3346 5.87917 4.43465
H 11.3404 8.9393 2.29453
H 13.7155 8.41981 1.36672
H 12.2438 6.36788 5.395
H 15.3951 6.1743 -0.146352
H 16.3076 5.16401 0.792547
H 13.2162 5.09417 1.09318
H 14.8708 4.1049 2.96139
H 15.5253 3.17694 1.68076
H 10.1892 5.56036 6.25053
H 9.89027 9.89852 8.59759
H 9.79397 9.94598 6.36868
H 10.0472 5.76013 8.63439
H 8.42997 9.27632 4.46082
H 8.90002 8.83166 2.83371
H 10.0547 9.69998 3.94756
H 9.27458 6.39353 2.80258
H 8.33967 6.06232 4.10633
H 9.95487 5.54864 4.18425
H 11.5865 9.31623 10.9614
H 12.228 8.42689 9.73947
H 12.1091 7.41607 12.541
H 14.2287 7.46466 10.288
H 14.086 8.52291 11.6701
C 7.2256 5.86994 13.6799
C 8.12664 5.31311 14.6022
C 9.50644 5.14515 14.4237
C 9.93408 5.52234 13.1433
C 9.06101 6.03753 12.1965
C 7.68227 6.18758 12.4232
O 6.90594 6.74527 11.4297
C 6.56978 8.15378 11.0778
C 5.17985 8.67332 11.2544
C 4.65992 8.47221 12.6833
O 3.91775 7.909 11.6575
C 10.3843 4.48629 15.446
C 10.6819 5.4349 16.6914
C 10.9137 4.90695 17.9337
C 11.1756 5.77184 19.0003
C 11.2956 7.15441 18.7869
C 11.1074 7.67861 17.5032
C 10.7747 6.84088 16.4897
O 11.7068 7.92653 19.8674
C 9.52789 3.30132 15.9592
C 11.7592 4.05621 14.8958
C 13.0025 7.94416 20.5343
C 14.0456 8.90939 20.0728
C 13.5637 10.1249 19.2442
O 14.3052 9.16356 18.6132
H 6.18658 5.97073 13.9296
H 10.9948 5.45198 12.9361
H 9.45231 6.2565 11.2343
H 7.77337 5.00054 15.5233
H 7.35142 8.73605 11.6403
H 6.83785 8.32821 10.0401
H 4.86334 9.52865 10.6392
H 4.23577 9.28019 13.2005
H 5.13465 7.81479 13.4233
H 10.9415 3.85521 18.0427
H 11.1582 8.75693 17.3458
H 10.579 7.29752 15.5158
H 11.3108 5.34627 19.9586
H 9.01194 2.83378 15.1295
H 8.82122 3.60034 16.6963
H 10.1073 2.55762 16.4372
H 11.7198 3.50939 13.9995
H 12.2166 3.39665 15.5408
H 12.4986 4.81248 14.8567
H 13.3673 6.92389 20.4955
H 12.8605 7.99704 21.6184
H 14.8766 9.014 20.7946
H 12.5032 10.2906 19.0433
H 13.9762 11.1123 19.5166
258
Atoms. Timestep: 150000
C 11.1254 24.2566 12.5807
C 11.7051 0.529451 12.3487
C 13.102 0.729004 12.4336
C 11.861 23.3126 13.3298
C 13.2578 23.4713 13.3562
C 13.8501 24.6605 12.9277
N 10.9013 1.64944 12.179
N 11.1856 22.3793 14.1225
C 13.8598 1.9467 11.7913
C 14.2341 22.4506 13.9022
C 15.3005 23.1381 14.7913
C 14.4468 2.69979 12.9875
C 9.91257 23.8952 11.7073
H 14.857 24.8335 12.9654
H 11.0738 2.69031 12.1981
H 9.88071 1.52988 12.1247
H 13.1151 2.56998 11.3691
H 14.5481 1.667 11.0171
H 11.8098 21.8254 14.7599
H 10.9334 23.9369 15.4776
H 14.8952 21.9511 13.1774
H 13.6787 21.5852 14.3192
H 9.0059 24.4378 12.0255
H 9.70899 22.8408 11.6249
H 10.0174 24.1819 10.6625
H 14.8572 3.64962 12.7089
H 15.2786 2.22666 13.478
H 13.7295 3.01385 13.7172
H 15.9773 23.7328 14.2868
H 15.797 22.3399 15.3152
H 14.7652 23.674 15.5858
C 8.68957 5.69292 7.51059
C 8.84336 4.37723 6.96624
C 8.88468 4.67424 5.59538
C 7.78846 6.65853 6.91129
C 7.22824 6.59423 5.63466
C 7.99736 5.64364 4.98517
N 8.8675 3.13652 7.55024
N 7.20872 7.67492 7.76204
C 10.1587 4.21682 4.79928
C 6.21879 7.49679 4.94363
C 4.83505 6.74918 5.29428
C 9.70091 3.33511 3.68124
C 9.84218 6.12864 8.43668
H 7.83491 5.62696 3.96485
H 5.62501 1.95143 7.1901
H 8.23266 1.26442 11.0414
H 10.9282 3.77205 5.43277
H 10.7563 5.02685 4.46457
H 6.45448 8.34051 7.65903
H 6.05435 10.2644 9.14144
H 6.22451 7.76253 3.89388
H 6.20966 8.4706 5.35571
H 10.876 5.90614 8.16619
H 9.7887 5.6823 9.46066
H 9.84668 7.17955 8.63384
H 9.49728 3.8138 2.71606
H 8.7058 2.81889 3.97461
H 10.3581 2.62864 3.28022
H 4.9451 5.74023 4.8693
H 3.90756 7.15997 4.90614
H 4.71816 6.8141 6.38971
C 14.817 15.0906 11.7186
C 15.1601 13.7819 11.8443
C 14.2393 12.7298 11.6052
C 12.9799 13.0647 11.1307
C 12.5823 14.3804 11.1036
C 13.4906 15.4146 11.3572
O 13.0957 16.7219 11.2853
C 12.4818 17.4399 12.45
C 11.2213 18.0922 12.0951
C 11.2474 19.6145 12.0048
O 10.5579 19.0411 13.0531
C 14.7533 11.2643 11.6702
C 13.5751 10.2996 11.5389
C 13.4316 9.48218 10.3749
C 12.2689 8.74838 10.2303
C 11.2619 8.71737 11.2437
C 11.4475 9.51099 12.3861
C 12.5528 10.3212 12.5122
O 10.2048 7.86686 11.2304
C 15.737 11.1882 10.4798
C 15.6009 11.0643 12.9597
C 9.88734 6.95839 12.3897
C 10.4769 5.60629 12.5013
C 11.9585 5.47281 12.1278
O 11.0496 4.81409 11.3422
H 15.5323 15.9231 11.9162
H 12.325 12.2685 10.9499
H 11.6157 14.6121 10.7706
H 16.144 13.5969 12.2018
H 12.2935 16.7483 13.2092
H 13.2071 18.1043 12.9222
H 10.4849 17.5266 11.5113
H 10.7357 20.1423 11.2078
H 12.1604 20.1835 12.2457
H 14.2027 9.50157 9.66995
H 10.8217 9.5342 13.2016
H 12.7353 10.9326 13.3369
H 12.0673 8.22033 9.32274
H 16.4992 11.9244 10.532
H 15.2024 11.417 9.61197
H 16.2912 10.2995 10.3403
H 15.1265 10.4821 13.6894
H 15.9591 11.9802 13.4584
H 16.4635 10.4891 12.8119
H 8.80036 6.9685 12.3831
H 9.95077 7.55765 13.2895
H 10.1195 4.96256 13.3206
H 12.5427 6.2494 11.6012
H 12.6275 4.87387 12.7296
C 11.6215 6.36938 18.25
C 10.3628 6.83354 17.8961
C 9.21063 6.1257 18.2142
C 9.30234 4.93274 18.935
C 10.5466 4.4811 19.3138
C 11.7131 5.21514 18.9963
O 12.9525 4.73453 19.2765
C 13.4911 3.54739 18.5391
C 12.998 3.59185 17.1731
C 12.1494 2.46557 16.5394
O 13.4118 2.63631 16.0689
C 7.88947 6.46329 17.5138
C 7.98755 5.55846 16.2034
C 8.68801 4.37509 16.0792
C 8.76426 3.55681 14.8964
C 8.03011 3.68841 13.7413
C 7.27012 4.81569 13.9284
C 7.23961 5.69152 15.0636
O 8.08155 2.81465 12.638
C 6.65355 6.00809 18.3085
C 7.65391 7.91004 17.1988
C 8.13896 3.43194 11.3272
C 8.85511 2.79555 10.14
C 8.16285 3.16565 8.92951
O 8.87655 1.30985 10.2621
H 12.5151 6.9016 17.9958
H 8.39731 4.35558 19.0824
H 10.5858 3.54272 19.8772
H 10.2864 7.73763 17.267
H 14.5695 3.58083 18.6172
H 13.1938 2.68761 19.1448
H 12.7779 4.58622 16.7733
H 11.2336 2.76522 16.0256
H 11.9752 1.44397 16.9743
H 9.32477 4.02468 16.9007
H 6.59067 5.11926 13.1687
H 6.60887 6.57535 15.0162
H 9.40864 2.71915 14.8514
H 5.86559 5.5881 17.7545
H 6.11061 6.87136 18.7177
H 6.79532 5.31548 19.1263
H 8.32005 8.22809 16.4018
H 7.8994 8.47558 18.1083
H 6.69501 8.22203 16.8546
H 8.64233 4.39595 11.491
H 7.08844 3.65534 11.1167
H 9.85522 3.04744 10.147
H 7.29244 2.54224 8.79574
H 7.8984 4.23928 8.84578
C 5.55036 22.6628 13.2309
C 4.74675 23.2981 12.2185
C 4.12742 24.516 12.2932
C 4.43431 0.0260957 13.5409
C 5.41424 24.4791 14.4453
C 5.98248 23.2206 14.4138
O 6.91799 22.6943 15.3169
C 8.02964 23.2001 16.0061
C 9.11163 23.6876 15.0239
C 9.67549 22.4388 14.3375
O 10.1295 24.3733 15.7998
C 3.2498 0.183225 11.1144
C 3.91136 0.0483394 9.69889
C 5.30176 0.00734374 9.63689
C 5.97701 24.9363 8.46501
C 5.30598 24.8422 7.20368
C 3.92009 24.8241 7.2487
C 3.23013 24.9656 8.48222
O 6.0579 24.7398 6.1078
C 1.98515 24.3979 11.0397
C 3.03132 1.69707 11.3238
C 6.81438 0.805786 5.31227
C 7.11058 2.11381 5.95098
C 8.45675 1.94346 6.70926
O 6.10927 2.71298 6.83852
H 5.92629 21.6915 12.9439
H 3.98268 0.989442 13.8089
H 5.65341 0.00733632 15.3169
H 4.73698 22.6727 11.309
H 7.69031 24.1149 16.5187
H 8.34597 22.5567 16.8659
H 8.6897 24.3971 14.3526
H 9.28122 22.256 13.3658
H 9.64607 21.5312 14.9137
H 5.76476 0.129307 10.6299
H 3.34504 24.9298 6.32389
H 2.17784 24.9442 8.33685
H 7.0946 24.8638 8.47077
H 1.82166 23.7084 11.8918
H 1.8758 23.7698 10.1601
H 1.03129 24.9596 11.0445
H 2.2702 1.99674 11.9856
H 2.8062 2.186 10.394
H 3.91937 2.17897 11.7855
H 6.37335 0.909294 4.31882
H 7.81025 0.543755 5.04696
H 7.16199 2.95971 5.25935
H 8.52354 1.12172 7.3776
H 9.35829 1.77156 6.02486
C 12.8942 14.3739 14.4535
C 11.5378 14.2443 13.9561
C 10.4663 14.9834 14.3377
C 10.9732 15.9979 15.1519
C 12.3269 16.1855 15.5376
C 13.3863 15.304 15.3086
O 14.6724 15.3813 15.8615
C 15.3078 14.1951 16.3425
C 16.6615 13.5742 15.8527
C 17.53 14.555 15.0596
O 16.9099 13.4435 14.4611
C 9.03527 14.6385 13.9975
C 8.93439 13.6329 12.8182
C 8.2308 12.4624 12.9766
C 7.8844 11.6827 11.8594
C 8.37927 12.0473 10.5876
C 9.20274 13.1235 10.5233
C 9.50726 13.9694 11.6147
O 7.985 11.2338 9.53011
C 8.46759 13.9422 15.2359
C 8.25405 15.9286 13.6869
C 8.2363 9.71818 9.34065
C 7.21932 8.86175 9.9202
C 7.28037 7.53657 9.23788
O 5.91392 9.46177 9.74868
H 13.5673 13.5204 14.2377
H 10.2153 16.6864 15.5312
H 12.662 17.0433 16.1772
H 11.4302 13.3521 13.3977
H 15.6083 14.4067 17.394
H 14.495 13.4988 16.6121
H 17.1236 12.8694 16.5252
H 18.5877 14.5226 15.1367
H 17.1677 15.5349 14.8112
H 7.80911 12.2756 13.9468
H 9.50267 13.2796 9.48407
H 10.0166 14.8699 11.4481
H 7.40145 10.7315 11.96
H 7.39203 13.5942 15.2432
H 8.58531 14.5002 16.1443
H 9.13766 13.1027 15.4201
H 7.92596 16.3561 14.6176
H 7.47478 15.8307 12.9958
H 8.78836 16.6896 13.172
H 9.28723 9.57737 9.66301
H 8.37306 9.54212 8.29748
H 7.32373 8.72725 11.0278
H 8.07393 6.85428 9.59747
H 6.41722 6.98684 9.44753
258
Atoms. Timestep: 200000
C 11.0282 23.6992 9.54871
C 11.7151 24.8254 10.1175
C 13.0039 24.6059 10.6997
C 11.5089 22.4323 9.92815
C 12.756 22.2004 10.5569
C 13.49 23.3722 10.9302
N 10.9553 0.999717 10.0093
N 10.3999 21.4938 9.92134
C 14.0993 0.615396 10.9261
C 13.3378 20.8581 10.8429
C 14.4067 20.597 9.79416
C 14.004 0.971992 12.4039
C 10.1397 23.8649 8.33491
H 14.4869 23.2338 11.3082
H 9.86609 4.42518 8.87466
H 10.0715 1.27054 9.52318
H 14.0847 1.41281 10.2033
H 15.068 0.148405 10.7332
H 11.5653 17.8917 11.3244
H 10.4668 20.4089 12.3729
H 12.4566 20.1576 10.96
H 13.795 20.7638 11.7827
H 10.092 24.8988 7.90492
H 9.13772 23.4996 8.43707
H 10.4019 23.0951 7.61247
H 14.2418 0.167385 13.0613
H 13.0674 1.41561 12.6655
H 14.7283 1.79475 12.6382
H 14.7743 19.5924 9.78121
H 15.3318 21.1647 9.83435
H 14.117 20.8377 8.75289
C 6.84508 8.87031 10.5525
C 5.9728 7.82705 10.1909
C 5.55058 8.29338 8.91319
C 6.39993 10.2563 10.4528
C 5.88878 10.7692 9.21047
C 5.27208 9.71124 8.66014
N 5.52846 6.7603 10.9753
N 6.3791 11.157 11.5232
C 5.46274 7.36283 7.70179
C 6.02359 12.1372 8.5494
C 7.57319 12.332 8.42636
C 6.43365 6.1782 7.90424
C 8.31024 8.63122 10.9794
H 4.62801 9.92987 7.78097
H 2.10801 6.90371 12.4915
H 6.13444 4.48219 11.1259
H 5.59272 7.83817 6.75017
H 4.368 7.06865 7.6525
H 6.15671 12.1509 11.2957
H 10.143 10.5939 12.6781
H 5.54577 12.9541 9.06817
H 5.47149 12.408 7.61721
H 8.47633 7.98081 11.8092
H 8.87472 9.54559 11.2314
H 8.81156 8.02548 10.2582
H 6.82867 5.8082 6.94976
H 6.04747 5.33997 8.4572
H 7.25559 6.51045 8.53178
H 7.8997 13.3572 8.41675
H 8.01994 11.97 7.531
H 8.16182 11.896 9.21873
C 11.584 15.03 8.34812
C 12.0322 13.8 7.84779
C 11.8526 12.6121 8.53194
C 10.9963 12.6925 9.68496
C 10.6155 13.9094 10.2055
C 10.8361 15.1042 9.50921
O 10.4687 16.344 10.0266
C 10.0102 17.6886 9.57459
C 10.2718 18.8911 10.4122
C 10.6588 20.0647 9.51178
O 11.2301 18.8202 11.5042
C 12.4464 11.2946 7.97656
C 11.7717 9.94785 8.59825
C 10.9667 9.05401 7.92129
C 10.5904 7.75675 8.37883
C 10.7699 7.23098 9.66438
C 11.4178 8.22541 10.3566
C 11.9575 9.45272 9.83828
O 10.3748 5.96825 10.09
C 12.2262 11.2092 6.50154
C 13.8844 11.2511 8.41969
C 11.0272 4.81727 10.6896
C 10.4859 3.42068 10.2954
C 11.4618 2.33031 10.461
O 9.87609 3.44254 9.02042
H 11.6698 15.9132 7.72436
H 10.835 11.7955 10.1651
H 10.0434 13.9783 11.1011
H 12.6561 13.7796 6.96219
H 10.7965 17.7578 8.78359
H 9.05722 17.5866 9.18836
H 9.29969 19.1316 10.9407
H 10.11 20.0624 8.57931
H 11.6707 20.0371 9.2076
H 10.6655 9.33983 6.90253
H 11.651 7.95697 11.3594
H 12.599 10.0441 10.4559
H 10.0825 7.09845 7.71874
H 12.4695 12.0657 5.894
H 11.1677 11.2019 6.33248
H 12.7115 10.3784 5.98941
H 14.108 10.4919 9.21206
H 14.2915 12.1071 8.80906
H 14.5988 11.0031 7.60373
H 10.9426 5.09619 11.777
H 12.1245 4.88111 10.4269
H 9.63628 3.29144 11.0234
H 12.4875 2.46761 10.134
H 11.899 2.07073 11.4409
C 12.5366 22.5117 14.416
C 11.4037 22.7445 15.1662
C 11.3129 23.7846 16.1227
C 12.4524 24.6026 16.1781
C 13.5635 24.4057 15.3594
C 13.6688 23.3024 14.5323
O 14.8123 23.1328 13.7583
C 15.9226 22.1948 13.9093
C 16.6912 21.936 12.6456
C 17.2501 23.2214 12.1297
O 16.3846 22.5874 11.2461
C 9.93341 24.1567 16.8248
C 9.41246 0.430895 16.1572
C 9.52432 0.751172 14.8114
C 9.2987 2.04749 14.2472
C 8.88981 3.23509 14.8425
C 8.75736 2.89362 16.1721
C 8.95262 1.60426 16.7657
O 8.67857 4.42718 14.1562
C 8.906 23.04 16.6827
C 10.142 24.2314 18.32
C 7.63095 5.34454 13.8235
C 7.05026 5.45745 12.437
C 5.94887 6.50054 12.4278
O 6.75428 4.20474 11.7911
H 12.5814 21.7342 13.7013
H 12.4552 0.332883 16.9168
H 14.4563 0.0511059 15.5219
H 10.5982 22.1188 15.0333
H 16.539 22.5645 14.6912
H 15.5235 21.2402 14.242
H 17.2292 21.03 12.6228
H 18.2372 23.3358 11.7155
H 17.0145 24.2254 12.5557
H 9.79776 24.9525 14.1289
H 8.41702 3.69734 16.7752
H 8.75487 1.6075 17.8092
H 9.39937 2.16843 13.1699
H 7.9138 23.2374 17.0726
H 9.26932 22.1481 17.2715
H 8.60045 22.825 15.6593
H 9.30554 23.8803 18.9251
H 10.2648 0.204847 18.7043
H 11.119 23.8363 18.651
H 7.75614 6.36143 14.2498
H 6.77084 5.16755 14.4844
H 7.88111 5.84674 11.8192
H 5.08398 6.21076 12.9779
H 6.17418 7.49076 12.7419
C 5.1508 23.2952 13.6984
C 4.57301 24.3401 14.4858
C 4.9408 0.712628 14.3519
C 5.83981 0.74598 13.3245
C 6.4441 24.6572 12.5682
C 6.16997 23.3125 12.7339
O 6.85666 22.2654 12.1185
C 7.94093 21.5887 12.7307
C 9.35297 21.945 12.2567
C 9.19869 21.8995 10.735