ITEM: TIMESTEP
0
ITEM: NUMBER OF ATOMS
258
ITEM: BOX BOUNDS pp pp pp
0.0000000000000000e+00 2.5000000000000000e+01
0.0000000000000000e+00 2.5000000000000000e+01
0.0000000000000000e+00 2.5000000000000000e+01
ITEM: ATOMS id mol type q xu yu zu 
1 1 1 0.035091 11.983 13.784 18.727 
2 1 1 0.140868 11.18 12.644 18.428 
3 1 1 -0.00465213 9.818 12.828 18.074 
4 1 1 0.132861 11.471 15.093 18.491 
5 1 1 -0.0059361 10.095 15.253 18.189 
6 1 1 -0.053254 9.295 14.123 18 
7 1 3 -0.569998 11.72 11.393 18.459 
8 1 3 -0.57935 12.301 16.174 18.522 
9 1 1 -0.0655236 8.873 11.674 17.799 
10 1 1 -0.0671296 9.443 16.61 18.007 
11 1 1 -0.0882299 9.625 17.118 16.578 
12 1 1 -0.0991077 8.363 11.062 19.1 
13 1 1 -0.0540903 13.367 13.606 19.322 
14 1 4 0.042841 8.243 14.256 17.754 
15 1 7 0.215835 11.158 10.524 18.306 
16 1 7 0.234336 12.746 11.221 18.578 
17 1 4 0.064436 9.357 10.899 17.163 
18 1 4 0.0359327 7.993 12.022 17.209 
19 1 7 0.2051 13.341 16.086 18.613 
20 1 7 0.205581 11.97 17.154 18.361 
21 1 4 0.0493856 9.837 17.349 18.739 
22 1 4 0.0401893 8.349 16.545 18.218 
23 1 4 0.0475609 13.411 12.719 19.992 
24 1 4 0.04134 13.637 14.449 19.994 
25 1 4 0.0723686 14.122 13.509 18.511 
26 1 4 0.0327156 7.811 11.826 19.693 
27 1 4 0.0440506 9.206 10.667 19.711 
28 1 4 0.02684 7.668 10.222 18.869 
29 1 4 0.0351218 9.143 18.117 16.474 
30 1 4 0.0466308 9.149 16.415 15.858 
31 1 4 0.0498653 10.706 17.217 16.328 
32 2 1 0.0184437 3.604 15.843 16.385 
33 2 1 0.125648 3.907 16.376 15.097 
34 2 1 -0.00854086 4.249 17.749 14.979 
35 2 1 0.126705 3.825 16.633 17.55 
36 2 1 -0.00940027 4.114 18.013 17.404 
37 2 1 -0.0552442 4.307 18.546 16.126 
38 2 3 -0.584761 3.891 15.573 13.996 
39 2 3 -0.578099 3.79 16.062 18.787 
40 2 1 -0.0516738 4.527 18.419 13.647 
41 2 1 -0.0664263 4.279 18.95 18.585 
42 2 1 -0.093581 5.705 18.898 19.131 
43 2 1 -0.0818191 3.228 18.769 12.927 
44 2 1 -0.0476416 3.022 14.448 16.512 
45 2 4 0.042676 4.544 19.603 16.026 
46 2 7 0.20298 4.048 15.931 13.025 
47 2 7 0.205776 3.783 14.534 14.054 
48 2 4 0.073886 5.173 17.782 13.002 
49 2 4 0.0612303 5.107 19.359 13.796 
50 2 7 0.208368 3.709 15.027 18.93 
51 2 7 0.207651 3.94 16.602 19.671 
52 2 4 0.0542249 3.544 18.722 19.388 
53 2 4 0.0403138 4.06 20 18.279 
54 2 4 0.0644683 2.36 14.202 15.652 
55 2 4 0.0634465 2.344 14.364 17.389 
56 2 4 0.062983 3.84 13.698 16.59 
57 2 4 0.0387565 2.623 19.47 13.547 
58 2 4 0.0462978 2.627 17.854 12.724 
59 2 4 0.0655028 3.461 19.263 11.957 
60 2 4 0.0343774 5.796 19.59 19.999 
61 2 4 0.0356944 6.427 19.214 18.345 
62 2 4 0.0463379 5.962 17.868 19.468 
63 3 1 -0.0132782 10.659 19.033 10.467 
64 3 1 -0.0550656 12.052 19.036 10.351 
65 3 1 -0.0245684 12.768 17.825 10.211 
66 3 1 -0.0399726 12.036 16.617 10.235 
67 3 1 -0.00741907 10.645 16.62 10.351 
68 3 1 0.139443 9.95 17.829 10.452 
69 3 2 -0.44915 8.539 17.831 10.59 
70 3 1 0.107659 7.96 17.906 9.262 
71 3 1 0.100879 6.433 17.903 9.39 
72 3 5 0.0409152 5.76 18.357 8.428 
73 3 6 -0.410136 5.9 19.278 9.595 
74 3 1 -0.0307912 14.304 17.77 10.102 
75 3 1 -0.0205643 14.701 16.858 8.925 
76 3 1 -0.0428708 14.103 17.066 7.662 
77 3 1 -0.0144008 14.452 16.278 6.563 
78 3 1 0.137859 15.426 15.283 6.691 
79 3 1 -0.020786 16.036 15.069 7.929 
80 3 1 -0.0557266 15.69 15.852 9.034 
81 3 2 -0.483643 15.763 14.469 5.578 
82 3 1 -0.0823672 14.945 19.153 9.835 
83 3 1 -0.0901105 14.834 17.266 11.466 
84 3 1 0.106368 16.851 15.115 4.867 
85 3 1 0.107415 17.244 14.249 3.665 
86 3 5 0.0769392 18.031 13.289 3.862 
87 3 6 -0.438869 18.65 14.5 3.249 
88 3 4 0.0805938 10.125 19.974 10.569 
89 3 4 0.0577594 12.549 15.661 10.161 
90 3 4 0.0793926 10.102 15.679 10.361 
91 3 4 0.0420649 12.552 19.996 10.372 
92 3 4 0.0870301 8.315 18.83 8.74 
93 3 4 0.0566423 8.257 17.012 8.662 
94 3 4 0.0802221 5.95 17.158 10.063 
95 3 4 0.0509168 4.712 17.99 8.336 
96 3 4 0.0494254 6.285 18.764 7.531 
97 3 4 0.0506658 13.356 17.841 7.528 
98 3 4 0.0582777 16.788 14.292 8.033 
99 3 4 0.0338507 16.204 15.655 9.966 
100 3 4 0.0627064 13.97 16.445 5.604 
101 3 4 0.0394264 14.81 19.836 10.706 
102 3 4 0.0382676 14.503 19.631 8.931 
103 3 4 0.0446965 16.041 19.047 9.666 
104 3 4 0.0311094 14.518 16.215 11.656 
105 3 4 0.0384545 14.436 17.898 12.295 
106 3 4 0.0313823 15.946 17.322 11.515 
107 3 4 0.0860946 17.726 15.282 5.544 
108 3 4 0.0743355 16.519 16.107 4.476 
109 3 4 0.0803779 16.551 14.193 2.794 
110 3 4 0.0778496 18.434 13.108 4.886 
111 3 4 0.0720149 17.987 12.45 3.129 
112 4 1 -0.00774687 6.453 3.295 7.903 
113 4 1 -0.0520174 5.276 3.666 8.562 
114 4 1 -0.0260276 5.211 3.676 9.974 
115 4 1 -0.0502124 6.355 3.263 10.693 
116 4 1 -0.021155 7.528 2.895 10.03 
117 4 1 0.140408 7.585 2.924 8.633 
118 4 2 -0.435158 8.769 2.531 7.959 
119 4 1 0.0951106 9.585 3.715 7.762 
120 4 1 0.102607 10.874 3.309 7.04 
121 4 5 0.0535555 11.513 4.203 6.427 
122 4 6 -0.395199 10.693 3.304 5.562 
123 4 1 -0.0333977 3.934 4.054 10.75 
124 4 1 -0.0286988 4.288 5.064 11.858 
125 4 1 -0.0532781 5.046 6.21 11.528 
126 4 1 -0.0193252 5.369 7.163 12.496 
127 4 1 0.137251 4.918 7.01 13.81 
128 4 1 -0.017268 4.159 5.889 14.155 
129 4 1 -0.0542319 3.834 4.931 13.191 
130 4 2 -0.481401 5.265 7.968 14.798 
131 4 1 -0.0831461 2.857 4.72 9.86 
132 4 1 -0.0818119 3.335 2.736 11.298 
133 4 1 0.104689 4.232 8.989 14.811 
134 4 1 0.10072 4.577 10.032 15.879 
135 4 5 0.0672828 4.255 9.786 17.07 
136 4 6 -0.460472 3.361 10.745 16.357 
137 4 4 0.0846983 6.486 3.297 6.818 
138 4 4 0.0510917 6.34 3.227 11.779 
139 4 4 0.0586752 8.397 2.586 10.602 
140 4 4 0.0437666 4.427 3.941 7.949 
141 4 4 0.0783688 9.018 4.477 7.169 
142 4 4 0.0274134 9.867 4.157 8.748 
143 4 4 0.0910557 11.436 2.416 7.4 
144 4 4 0.0771001 12.601 4.02 6.271 
145 4 4 0.0550321 11.119 5.247 6.407 
146 4 4 0.0439118 5.396 6.364 10.511 
147 4 4 0.0685052 3.812 5.764 15.177 
148 4 4 0.0447547 3.23 4.089 13.507 
149 4 4 0.0598476 5.964 8.029 12.224 
150 4 4 0.0385409 2.455 4.004 9.106 
151 4 4 0.0399274 3.271 5.608 9.328 
152 4 4 0.0429525 1.998 5.063 10.482 
153 4 4 0.0432664 4.009 2.273 12.055 
154 4 4 0.0472515 3.193 2.001 10.471 
155 4 4 0.0372882 2.336 2.907 11.762 
156 4 4 0.0847005 3.227 8.536 15.002 
157 4 4 0.0690705 4.198 9.512 13.825 
158 4 4 0.0672035 5.428 10.728 15.696 
159 4 4 0.0755192 3.717 8.839 17.31 
160 4 4 0.0528698 4.843 10.304 17.863 
161 5 1 -0.00910593 12.398 10.732 14.282 
162 5 1 -0.0496888 11.289 10.396 13.499 
163 5 1 -0.0280156 10.487 11.403 12.914 
164 5 1 -0.0510162 10.818 12.751 13.179 
165 5 1 -0.0214774 11.927 13.08 13.961 
166 5 1 0.137593 12.73 12.071 14.503 
167 5 2 -0.446192 13.844 12.405 15.313 
168 5 1 0.0976405 15.006 12.513 14.452 
169 5 1 0.101712 16.222 12.88 15.31 
170 5 5 0.0446849 17.366 12.633 14.848 
171 5 6 -0.404225 16.875 11.669 15.878 
172 5 1 -0.0315831 9.242 11.09 12.062 
173 5 1 -0.0318415 9.29 11.915 10.762 
174 5 1 -0.0628748 10.466 11.897 9.979 
175 5 1 -0.024801 10.544 12.611 8.781 
176 5 1 0.130948 9.441 13.337 8.322 
177 5 1 -0.0236148 8.266 13.36 9.077 
178 5 1 -0.0551015 8.182 12.649 10.277 
179 5 2 -0.488101 9.529 14.08 7.116 
180 5 1 -0.088155 9.148 9.601 11.647 
181 5 1 -0.0781219 8.006 11.408 12.938 
182 5 1 0.10401 9.116 13.213 6.027 
183 5 1 0.106842 9.191 13.996 4.712 
184 5 5 0.0679723 8.218 14.731 4.407 
185 5 6 -0.43187 8.276 13.426 3.686 
186 5 4 0.0824558 13.006 9.945 14.72 
187 5 4 0.0557131 10.211 13.556 12.775 
188 5 4 0.063762 12.166 14.123 14.148 
189 5 4 0.0532876 11.075 9.344 13.363 
190 5 4 0.0811421 15.176 11.547 13.912 
191 5 4 0.0333789 14.856 13.328 13.702 
192 5 4 0.0854295 16.125 13.699 16.06 
193 5 4 0.0594761 18.208 13.244 15.247 
194 5 4 0.0503901 17.464 12.139 13.852 
195 5 4 0.0358644 11.333 11.329 10.301 
196 5 4 0.0522172 7.409 13.928 8.726 
197 5 4 0.0409331 7.243 12.687 10.815 
198 5 4 0.0617393 11.462 12.595 8.202 
199 5 4 0.0504615 8.981 8.944 12.533 
200 5 4 0.0232537 10.075 9.272 11.124 
201 5 4 0.0306306 8.289 9.446 10.954 
202 5 4 0.040909 7.941 12.498 13.159 
203 5 4 0.0530437 8.07 10.865 13.91 
204 5 4 0.0375759 7.063 11.084 12.441 
205 5 4 0.0820913 8.084 12.819 6.202 
206 5 4 0.0712141 9.812 12.344 5.945 
207 5 4 0.0838636 10.192 14.244 4.291 
208 5 4 0.0644026 7.33 14.778 5.081 
209 5 4 0.0626407 8.431 15.578 3.715 
210 6 1 -0.0185452 14.291 5.533 9.815 
211 6 1 -0.0605046 14.073 4.704 10.921 
212 6 1 -0.0296774 13.912 5.252 12.214 
213 6 1 -0.0487466 14.02 6.654 12.358 
214 6 1 -0.0220741 14.236 7.476 11.25 
215 6 1 0.134555 14.358 6.92 9.974 
216 6 2 -0.434984 14.598 7.754 8.852 
217 6 1 0.0931913 13.314 8.125 8.288 
218 6 1 0.108168 13.552 9.032 7.077 
219 6 5 0.043132 12.632 9.134 6.226 
220 6 6 -0.40224 13.762 8.24 5.834 
221 6 1 -0.0329508 13.693 4.384 13.468 
222 6 1 -0.0289677 12.514 4.949 14.282 
223 6 1 -0.0574195 11.293 5.222 13.626 
224 6 1 -0.0183195 10.191 5.712 14.33 
225 6 1 0.137435 10.272 5.916 15.711 
226 6 1 -0.0214677 11.468 5.643 16.38 
227 6 1 -0.0551864 12.575 5.154 15.681 
228 6 2 -0.478217 9.159 6.435 16.421 
229 6 1 -0.0836265 13.346 2.913 13.136 
230 6 1 -0.0789061 15.027 4.382 14.253 
231 6 1 0.112066 8.354 5.313 16.87 
232 6 1 0.114727 7.149 5.846 17.652 
233 6 5 0.0722298 7.312 6.129 18.866 
234 6 6 -0.443589 6.625 4.831 18.605 
235 6 4 0.0717816 14.408 5.095 8.829 
236 6 4 0.0580771 13.932 7.115 13.338 
237 6 4 0.0592314 14.31 8.552 11.383 
238 6 4 0.0377822 14.034 3.637 10.743 
239 6 4 0.0666515 12.744 7.207 7.993 
240 6 4 0.0293033 12.716 8.699 9.037 
241 6 4 0.103336 14.278 9.874 7.168 
242 6 4 0.0674536 12.625 10.06 5.606 
243 6 4 0.0387012 11.689 8.552 6.361 
244 6 4 0.0367445 11.194 5.058 12.557 
245 6 4 0.058507 11.536 5.806 17.452 
246 6 4 0.0434704 13.472 4.945 16.25 
247 6 4 0.0665922 9.266 5.928 13.804 
248 6 4 0.0384435 14.208 2.392 12.655 
249 6 4 0.035445 12.464 2.852 12.457 
250 6 4 0.0438896 13.1 2.352 14.068 
251 6 4 0.0489073 15.266 5.399 14.641 
252 6 4 0.0482793 15.866 4.063 13.591 
253 6 4 0.0379679 14.993 3.669 15.109 
254 6 4 0.084323 8.962 4.613 17.497 
255 6 4 0.0806082 7.964 4.745 15.992 
256 6 4 0.104509 6.333 6.361 17.095 
257 6 4 0.0720494 8.309 5.968 19.34 
258 6 4 0.0609096 6.606 6.872 19.304 
ITEM: TIMESTEP
50000
ITEM: NUMBER OF ATOMS
258
ITEM: BOX BOUNDS pp pp pp
0.0000000000000000e+00 2.5000000000000000e+01
0.0000000000000000e+00 2.5000000000000000e+01
0.0000000000000000e+00 2.5000000000000000e+01
ITEM: ATOMS id mol type q xu yu zu 
1 1 1 0.00885358 11.3873 13.8151 13.6641 
2 1 1 0.124298 10.6012 14.59 14.5392 
3 1 1 -0.000239057 11.2093 15.7611 15.1558 
4 1 1 0.126239 12.6563 14.2324 13.2142 
5 1 1 -0.00133259 13.1723 15.4354 13.8117 
6 1 1 -0.0453437 12.4723 16.1553 14.7566 
7 1 3 -0.589178 9.23056 14.4604 14.7621 
8 1 3 -0.584248 13.4357 13.5117 12.3187 
9 1 1 -0.0631216 10.5245 16.5102 16.2991 
10 1 1 -0.053872 14.536 16.0365 13.4831 
11 1 1 -0.0883921 14.4267 17.0078 12.2794 
12 1 1 -0.0891619 10.5332 15.5449 17.4547 
13 1 1 -0.0735079 10.7273 12.5179 13.1483 
14 1 4 0.0567707 12.9099 16.9881 15.2385 
15 1 7 0.225628 8.45251 14.8116 15.321 
16 1 7 0.232984 8.74264 13.8359 14.1232 
17 1 4 0.0510641 9.57493 16.9787 15.9682 
18 1 4 0.0343638 10.8982 17.4692 16.5011 
19 1 7 0.194133 13.0758 12.5943 11.9897 
20 1 7 0.286394 14.4053 13.5614 12.014 
21 1 4 0.138441 15.3045 15.1433 13.2781 
22 1 4 0.0373629 14.9347 16.5405 14.4094 
23 1 4 0.0510743 10.1135 11.9635 13.8188 
24 1 4 0.0331698 11.5057 11.9098 12.6844 
25 1 4 0.036727 9.98901 12.7118 12.4051 
26 1 4 0.059219 10.1188 14.5607 17.153 
27 1 4 0.0264084 10.0702 15.8708 18.3423 
28 1 4 0.0410877 11.504 15.2819 17.8759 
29 1 4 0.0234743 15.3681 17.5861 12.114 
30 1 4 0.0408074 13.6278 17.7234 12.3929 
31 1 4 0.0549326 14.2054 16.6044 11.2908 
32 2 1 0.0147379 3.31725 10.7681 10.591 
33 2 1 0.10591 4.49665 11.2925 10.1591 
34 2 1 -0.0102859 5.67763 10.4895 10.1866 
35 2 1 0.123954 3.32533 9.7874 11.6305 
36 2 1 -0.0141109 4.59287 9.17498 11.9997 
37 2 1 -0.0516782 5.66518 9.46063 11.2209 
38 2 3 -0.501207 4.65833 12.6804 9.89124 
39 2 3 -0.583592 2.2198 9.65162 12.4117 
40 2 1 -0.0688139 6.75892 10.458 9.14764 
41 2 1 -0.0734913 4.81337 8.31582 13.2136 
42 2 1 -0.0895123 4.83398 9.19233 14.4878 
43 2 1 -0.0912591 7.89644 11.3282 9.6646 
44 2 1 -0.0721212 2.01518 11.0348 9.79885 
45 2 4 0.0471953 6.44197 8.75478 11.4161 
46 2 7 0.284369 5.60658 13.1905 9.68308 
47 2 7 0.348939 6.01859 14.7011 11.121 
48 2 4 0.0561177 6.42358 10.8845 8.16208 
49 2 4 0.0394959 7.02539 9.39209 8.93336 
50 2 7 0.197429 1.30388 10.1182 12.3385 
51 2 7 0.197109 2.14547 8.96294 13.2109 
52 2 4 0.037515 5.72669 7.73337 13.0046 
53 2 4 0.0324752 4.08498 7.4968 13.3096 
54 2 4 0.0218668 1.30878 11.6048 10.3967 
55 2 4 0.0470157 1.42426 10.2098 9.47404 
56 2 4 0.0463514 2.16156 11.7787 9.00341 
57 2 4 0.0165458 8.83791 11.2302 9.18886 
58 2 4 0.0248464 8.33007 11.0952 10.6548 
59 2 4 0.122688 7.69024 12.4795 9.72304 
60 2 4 0.0422465 3.91921 9.77402 14.7619 
61 2 4 0.0526903 5.46534 10.0566 14.3902 
62 2 4 0.0278617 5.0304 8.59415 15.3589 
63 3 1 -0.0199612 12.2447 22.257 12.2796 
64 3 1 -0.0547863 12.4767 22.2233 13.645 
65 3 1 -0.0303068 12.1141 21.052 14.3887 
66 3 1 -0.0531185 11.532 19.9496 13.7586 
67 3 1 -0.0120508 11.4285 19.9864 12.3705 
68 3 1 0.143367 11.8059 21.1034 11.6228 
69 3 2 -0.507927 11.7083 21.1244 10.2571 
70 3 1 0.0761971 12.8258 21.3162 9.19443 
71 3 1 0.0760637 14.1244 20.7699 9.55325 
72 3 5 0.0733214 15.3248 21.6659 9.54222 
73 3 6 -0.460087 15.3191 20.6986 8.54195 
74 3 1 -0.0323503 12.2385 20.995 15.8853 
75 3 1 -0.0271061 13.1228 19.7725 16.3653 
76 3 1 -0.056343 14.4032 19.5767 15.8585 
77 3 1 -0.0332388 15.1624 18.439 16.2251 
78 3 1 0.146774 14.6469 17.4433 17.0782 
79 3 1 -0.00890562 13.4164 17.7318 17.6094 
80 3 1 -0.0544472 12.6644 18.8781 17.3104 
81 3 2 -0.492378 15.2492 16.2433 17.4391 
82 3 1 -0.0806717 12.8232 22.2654 16.5171 
83 3 1 -0.0891673 10.8036 20.9703 16.4533 
84 3 1 0.119538 15.9284 15.1592 16.8128 
85 3 1 0.100446 17.4416 15.034 17.0695 
86 3 5 0.0593381 18.3038 15.3752 15.8927 
87 3 6 -0.483676 18.0847 14.0021 16.1688 
88 3 4 0.0568257 12.4686 23.1582 11.7523 
89 3 4 0.0527919 11.1327 19.1141 14.2734 
90 3 4 0.100056 11.0162 19.0849 11.8768 
91 3 4 0.052712 12.8071 23.0813 14.1574 
92 3 4 0.086583 12.2935 20.8993 8.35071 
93 3 4 0.0615716 12.8153 22.435 9.08686 
94 3 4 0.0773008 14.0469 19.8603 10.1295 
95 3 4 0.0580171 16.2217 21.5978 10.2117 
96 3 4 0.0532746 15.2565 22.7339 9.30259 
97 3 4 0.0396714 14.8006 20.2802 15.1088 
98 3 4 0.0776629 13.0721 16.9874 18.2734 
99 3 4 0.0399571 11.6579 19.0811 17.6831 
100 3 4 0.0409488 16.1796 18.3531 15.8714 
101 3 4 0.0415741 13.8763 22.4763 16.2644 
102 3 4 0.042817 12.9263 22.1028 17.6016 
103 3 4 0.0489442 12.2175 23.0857 16.2977 
104 3 4 0.0331137 10.0076 21.3473 15.7926 
105 3 4 0.0314846 10.662 21.4912 17.3749 
106 3 4 0.0281896 10.3927 19.9591 16.6139 
107 3 4 0.0859039 15.7573 15.2488 15.7471 
108 3 4 0.0976556 15.5351 14.1737 17.1078 
109 3 4 0.0854115 17.7451 15.1628 18.0713 
110 3 4 0.0337585 17.8736 15.8189 15.0065 
111 3 4 0.0547103 19.3294 15.6842 15.9895 
112 4 1 -0.0235331 7.31808 5.67317 13.0711 
113 4 1 -0.0528502 7.90586 6.73637 13.7601 
114 4 1 -0.0261329 8.91903 7.4974 13.2226 
115 4 1 -0.055216 9.3414 7.25713 11.9088 
116 4 1 -0.0163657 8.80322 6.20205 11.2093 
117 4 1 0.147167 7.82929 5.38005 11.8045 
118 4 2 -0.493089 7.30996 4.28478 11.1624 
119 4 1 0.0913694 6.01635 3.98106 10.5191 
120 4 1 0.094878 5.29257 5.20559 10.0209 
121 4 5 0.0817501 4.02485 5.6487 10.6604 
122 4 6 -0.459801 3.95801 5.26662 9.29596 
123 4 1 -0.0331641 9.52204 8.54557 14.1446 
124 4 1 -0.0323613 8.71402 9.82061 14.1272 
125 4 1 -0.0559161 8.10735 10.5885 15.1659 
126 4 1 -0.0239133 7.262 11.7091 14.9907 
127 4 1 0.142555 6.8372 12.3295 13.8197 
128 4 1 -0.0269217 7.46752 11.6007 12.8359 
129 4 1 -0.0585215 8.19427 10.3773 12.9538 
130 4 2 -0.474322 5.93169 13.348 13.7054 
131 4 1 -0.0834315 9.51687 8.05947 15.6073 
132 4 1 -0.0850893 10.957 8.75869 13.6578 
133 4 1 0.110611 4.74062 13.2547 12.839 
134 4 1 0.133066 4.25653 14.3049 11.8528 
135 4 5 0.0565346 3.68691 13.5186 10.6801 
136 4 6 -0.548963 5.18172 15.2695 11.4082 
137 4 4 0.0478292 6.46748 5.11716 13.4777 
138 4 4 0.0348895 10.042 8.00579 11.4078 
139 4 4 0.0629286 9.22051 6.0722 10.281 
140 4 4 0.0433272 7.43125 6.95643 14.7211 
141 4 4 0.100922 6.19119 3.32692 9.72715 
142 4 4 0.0753384 5.50459 3.41363 11.2925 
143 4 4 0.0847751 5.99897 5.985 9.7311 
144 4 4 0.0602898 3.96738 6.7542 10.9942 
145 4 4 0.0611671 3.55098 5.04395 11.4219 
146 4 4 0.0446783 8.32019 10.2178 16.1381 
147 4 4 0.0726891 7.15296 11.8921 11.8276 
148 4 4 0.0444025 8.62073 9.77468 12.1361 
149 4 4 0.0697266 6.90133 12.3446 15.8276 
150 4 4 0.0482734 9.75197 7.04687 15.616 
151 4 4 0.0345352 8.51482 7.96433 16.1208 
152 4 4 0.0345945 10.2086 8.57503 16.3382 
153 4 4 0.0292706 11.0637 9.06826 12.6347 
154 4 4 0.0448276 11.479 7.86351 13.8341 
155 4 4 0.0352241 11.5889 9.42987 14.1926 
156 4 4 0.06031 3.94447 12.9078 13.5541 
157 4 4 0.0943675 4.96182 12.3086 12.3673 
158 4 4 0.0806255 3.51139 14.9135 12.4065 
159 4 4 0.0406479 2.85638 12.8425 10.9313 
160 4 4 0.0846587 3.35604 14.2144 9.88998 
161 5 1 -0.00225745 16.3711 13.9726 9.58404 
162 5 1 -0.0514556 15.2664 14.531 8.91133 
163 5 1 -0.0270155 15.1052 15.9134 8.79928 
164 5 1 -0.0481165 16.0607 16.7054 9.48348 
165 5 1 -0.00964049 17.0954 16.1805 10.2593 
166 5 1 0.171527 17.2679 14.7906 10.2758 
167 5 2 -0.46458 18.3412 14.2744 10.9481 
168 5 1 0.0791057 18.7118 13.9265 12.3951 
169 5 1 0.104446 17.5408 13.586 13.2409 
170 5 5 0.0884633 16.8029 12.3299 12.9497 
171 5 6 -0.497772 16.0499 13.5473 12.9438 
172 5 1 -0.0362464 13.9979 16.5694 7.88892 
173 5 1 -0.0343784 12.8006 16.7823 8.77778 
174 5 1 -0.0540531 11.8662 17.8168 8.44337 
175 5 1 -0.0135725 10.7016 18.0206 9.19395 
176 5 1 0.141226 10.4619 17.2073 10.3108 
177 5 1 -0.0242545 11.3629 16.1592 10.6295 
178 5 1 -0.0545248 12.5177 15.9813 9.88832 
179 5 2 -0.498313 9.31972 17.3713 11.0272 
180 5 1 -0.0619142 14.5521 17.8994 7.34326 
181 5 1 -0.0894988 13.5106 15.7568 6.66805 
182 5 1 0.103275 8.24655 16.3491 11.1309 
183 5 1 0.0651921 8.4123 15.2097 10.2278 
184 5 5 0.0728477 7.55897 15.2505 9.03451 
185 5 6 -0.541137 7.12951 14.1479 9.89113 
186 5 4 0.0690585 16.5735 12.9362 9.5713 
187 5 4 0.0578607 16.0413 17.7564 9.4791 
188 5 4 0.0561357 17.6887 16.8631 10.8143 
189 5 4 0.0413428 14.5201 13.9453 8.38187 
190 5 4 0.0582361 19.5195 13.155 12.4619 
191 5 4 0.0661261 19.1534 14.8481 12.7312 
192 5 4 0.12646 17.7536 13.8725 14.3364 
193 5 4 0.0623558 16.5801 11.5724 13.6605 
194 5 4 0.0657205 16.9802 11.8538 11.9728 
195 5 4 0.0437523 12.0797 18.3555 7.52782 
196 5 4 0.0651612 11.0899 15.3972 11.3751 
197 5 4 0.06337 13.1554 15.1908 10.0941 
198 5 4 0.0716889 9.86776 18.7225 8.99062 
199 5 4 0.0471613 13.8988 18.4416 6.6354 
200 5 4 0.0609732 15.5578 17.846 6.88456 
201 5 4 0.0924863 14.6735 18.5481 8.23997 
202 5 4 0.0355231 14.1076 14.9029 6.31677 
203 5 4 0.0326348 13.0923 16.3852 5.86276 
204 5 4 0.0304323 12.6157 15.1704 6.86663 
205 5 4 0.104462 7.32369 16.9574 11.0043 
206 5 4 0.104811 8.0799 16.1389 12.1829 
207 5 4 0.0583 9.36496 14.7728 10.1755 
208 5 4 0.0718133 6.80311 16.0204 8.93992 
209 5 4 0.0507665 7.85635 14.9144 8.02165 
210 6 1 -0.0152345 6.27191 -0.259814 7.72426 
211 6 1 -0.0566904 7.25434 -1.02243 8.30376 
212 6 1 -0.0327028 7.04015 -1.56587 9.60309 
213 6 1 -0.0568546 5.80136 -1.29762 10.1972 
214 6 1 -0.00987521 4.83917 -0.493433 9.61692 
215 6 1 0.157062 5.03152 0.0411875 8.35293 
216 6 2 -0.474324 4.09596 0.850285 7.76097 
217 6 1 0.0843054 2.70675 0.821265 7.29972 
218 6 1 0.0885697 1.6825 1.44435 8.15661 
219 6 5 0.129272 2.1586 2.79902 8.67473 
220 6 6 -0.4416 1.74822 1.88055 9.61007 
221 6 1 -0.0370333 8.15146 -2.32631 10.3228 
222 6 1 -0.0302976 8.59639 -1.5578 11.5857 
223 6 1 -0.0496076 8.39213 -0.180355 11.6618 
224 6 1 -0.017037 8.83446 0.517565 12.8115 
225 6 1 0.148256 9.50796 -0.127945 13.8473 
226 6 1 -0.0147933 9.63023 -1.51751 13.7828 
227 6 1 -0.0504195 9.17377 -2.20926 12.6926 
228 6 2 -0.487512 9.93002 0.471843 15.0115 
229 6 1 -0.07879 7.6962 -3.81629 10.4002 
230 6 1 -0.07243 9.4267 -2.22714 9.45659 
231 6 1 0.0993976 9.24057 0.747038 16.284 
232 6 1 0.0859865 7.83705 0.297152 16.5498 
233 6 5 0.0789861 6.69225 1.09132 15.9657 
234 6 6 -0.436993 6.88257 1.19205 17.3517 
235 6 4 0.0682313 6.46438 0.146733 6.79002 
236 6 4 0.0427223 5.63669 -1.68463 11.1598 
237 6 4 0.0920703 3.93135 -0.234019 10.1167 
238 6 4 0.0390696 8.21167 -1.24653 7.86646 
239 6 4 0.0546651 2.7174 1.07516 6.24976 
240 6 4 0.0690958 2.51738 -0.248452 7.22787 
241 6 4 0.0609021 0.672116 1.11515 7.96437 
242 6 4 0.0823545 1.65751 3.77995 8.49649 
243 6 4 0.143731 3.2097 3.08445 8.62834 
244 6 4 0.0638436 7.95211 0.371738 10.8629 
245 6 4 0.0639291 10.1212 -2.11465 14.5225 
246 6 4 0.0580039 9.33314 -3.31378 12.6401 
247 6 4 0.0804842 8.70974 1.60285 12.8715 
248 6 4 0.0414679 7.05391 -4.00697 11.2642 
249 6 4 0.0631613 8.44172 -4.54945 10.3896 
250 6 4 0.0399236 7.05557 -4.06913 9.56432 
251 6 4 0.0384727 9.85494 -1.29106 9.33749 
252 6 4 0.0319324 9.18686 -2.62379 8.47071 
253 6 4 0.122347 10.2602 -2.81905 9.90985 
254 6 4 0.106878 9.42094 1.80153 16.3891 
255 6 4 0.0762954 9.98116 0.261345 17.0482 
256 6 4 0.061681 7.75432 -0.792662 16.6871 
257 6 4 0.0651586 6.89665 2.01068 15.3592 
258 6 4 0.0655342 5.69538 0.684844 15.7329 
ITEM: TIMESTEP
100000
ITEM: NUMBER OF ATOMS
258
ITEM: BOX BOUNDS pp pp pp
0.0000000000000000e+00 2.5000000000000000e+01
0.0000000000000000e+00 2.5000000000000000e+01
0.0000000000000000e+00 2.5000000000000000e+01
ITEM: ATOMS id mol type q xu yu zu 
1 1 1 0.00582567 14.5011 2.20249 4.66253 
2 1 1 0.122185 13.8602 1.94776 5.91786 
3 1 1 0.000256901 12.9536 0.920084 6.07898 
4 1 1 0.115298 13.7987 1.76845 3.51081 
5 1 1 -0.00729195 12.8876 0.667745 3.61179 
6 1 1 -0.0543933 12.4601 0.325601 4.89571 
7 1 3 -0.607204 14.0759 2.66265 7.10469 
8 1 3 -0.512836 13.7714 2.43667 2.28892 
9 1 1 -0.0570452 12.4675 0.295018 7.3968 
10 1 1 -0.0622815 12.5135 -0.121167 2.4067 
11 1 1 -0.0898011 13.5979 -1.21511 2.09275 
12 1 1 -0.0769857 13.8058 -0.238533 7.98729 
13 1 1 -0.0821849 15.9517 2.68309 4.65284 
14 1 4 0.0420899 11.8456 -0.531448 5.09824 
15 1 7 0.283763 14.0026 2.62204 8.1373 
16 1 7 0.204698 14.6695 3.45015 7.01019 
17 1 4 0.0331314 11.6972 -0.451488 7.37728 
18 1 4 0.0657677 11.909 1.03188 7.96503 
19 1 7 0.24164 13.498 2.17842 1.3674 
20 1 7 0.250441 13.18 3.7866 -0.449789 
21 1 4 0.0552222 12.3321 0.551676 1.52159 
22 1 4 0.0357775 11.5195 -0.59059 2.35567 
23 1 4 0.0334113 16.4539 2.72547 3.73954 
24 1 4 0.0337775 16.5815 2.26886 5.38556 
25 1 4 0.0308367 16.0443 3.78033 4.87729 
26 1 4 0.0655123 14.39 0.523755 8.47911 
27 1 4 0.0440879 14.4269 -0.555527 7.13794 
28 1 4 0.0324683 13.6437 -0.995908 8.77138 
29 1 4 0.0367121 13.8793 -1.81936 2.99474 
30 1 4 0.0478473 14.4786 -0.896428 1.61921 
31 1 4 0.0315669 13.1545 -1.99421 1.50735 
32 2 1 0.00923109 15.9513 5.87348 14.1851 
33 2 1 0.0996791 15.1019 6.71411 13.4186 
34 2 1 -0.0195846 14.6105 7.55433 14.4379 
35 2 1 0.124473 15.3723 5.18715 15.33 
36 2 1 -0.00570099 14.5097 5.82472 16.2816 
37 2 1 -0.0360722 14.4696 7.11909 15.8192 
38 2 3 -0.407508 14.8232 6.60949 12.0661 
39 2 3 -0.58893 15.7032 3.83084 15.512 
40 2 1 -0.0755227 14.4332 9.07411 14.1319 
41 2 1 -0.0596037 14.2015 5.4373 17.7027 
42 2 1 -0.0783642 15.3614 6.05798 18.5167 
43 2 1 -0.0929152 12.9648 9.44408 14.3681 
44 2 1 -0.0855324 17.4856 5.97849 13.9484 
45 2 4 0.0962573 14.0999 7.88015 16.4739 
46 2 7 0.352646 12.7049 5.65804 10.4286 
47 2 7 0.279558 14.0924 5.07807 8.41817 
48 2 4 0.0357728 14.8702 9.31862 13.1511 
49 2 4 0.0501994 15.0292 9.67871 14.7812 
50 2 7 0.197396 16.5301 3.40486 15.0679 
51 2 7 0.208311 15.4935 3.1839 16.2252 
52 2 4 0.044288 14.0748 4.39655 17.8542 
53 2 4 0.0606203 13.2306 5.78478 18.0638 
54 2 4 0.0403859 18.1029 5.9791 14.8456 
55 2 4 0.0423414 17.3954 7.03428 13.5548 
56 2 4 0.022707 18.0093 5.2298 13.2652 
57 2 4 0.0443187 12.8064 10.3477 14.9169 
58 2 4 0.0481199 12.475 8.82937 15.065 
59 2 4 0.0239845 12.4449 9.54371 13.4669 
60 2 4 0.0288958 15.1394 5.93589 19.5597 
61 2 4 0.0874658 15.5175 7.11999 18.3352 
62 2 4 0.042184 16.3085 5.56179 18.2818 
63 3 1 -0.0191273 7.49694 35.8171 18.0729 
64 3 1 -0.0510591 6.79641 36.6688 18.8909 
65 3 1 -0.0304081 6.2994 37.8333 18.3013 
66 3 1 -0.0558166 6.72139 38.2901 17.0684 
67 3 1 -0.0203281 7.47571 37.4053 16.2816 
68 3 1 0.147297 7.79636 36.1175 16.7106 
69 3 2 -0.482542 8.45347 35.2081 15.9763 
70 3 1 0.0824171 7.64817 33.9722 15.6049 
71 3 1 0.0763022 6.3196 33.7382 16.2333 
72 3 5 0.0742256 6.05963 32.3591 16.8088 
73 3 6 -0.490381 5.39357 32.6839 15.6499 
74 3 1 -0.0338788 5.37916 38.6375 19.1687 
75 3 1 -0.0263707 4.65698 37.656 20.1283 
76 3 1 -0.0508745 4.06783 36.5249 19.587 
77 3 1 -0.0190444 3.40543 35.6075 20.3906 
78 3 1 0.181632 3.31247 35.7318 21.8059 
79 3 1 0.0156224 3.95912 36.8484 22.3548 
80 3 1 -0.0441613 4.55623 37.7796 21.5152 
81 3 2 -0.460589 2.80036 34.7759 22.5864 
82 3 1 -0.0872375 6.31321 39.7026 19.7845 
83 3 1 -0.0839177 4.32079 39.348 18.3317 
84 3 1 0.0853375 1.33724 34.4096 22.9733 
85 3 1 0.0934769 0.269548 35.4172 22.9002 
86 3 5 0.0824879 0.0827425 36.0692 21.5365 
87 3 6 -0.420213 0.534977 36.8423 22.5887 
88 3 4 0.0700878 7.90053 34.8935 18.4581 
89 3 4 0.0456512 6.39859 39.2075 16.6665 
90 3 4 0.0634539 7.73401 37.5985 15.2579 
91 3 4 0.0562799 6.688 36.4443 19.8927 
92 3 4 0.0777671 7.62502 33.9587 14.5121 
93 3 4 0.0640676 8.21466 33.0221 15.7309 
94 3 4 0.0752602 5.71657 34.6066 16.5043 
95 3 4 0.052367 5.53786 32.1752 17.7755 
96 3 4 0.0545499 6.78998 31.5476 16.6972 
97 3 4 0.0455558 4.05808 36.2789 18.5228 
98 3 4 0.0891775 3.95208 37.0523 23.4193 
99 3 4 0.0486911 5.05147 38.6534 21.8509 
100 3 4 0.0548659 2.95648 34.7346 19.9752 
101 3 4 0.0345201 5.9628 40.7233 19.868 
102 3 4 0.0442654 7.17388 39.7996 19.1579 
103 3 4 0.0346223 6.76445 39.3778 20.7095 
104 3 4 0.0350933 4.11694 38.8674 17.3286 
105 3 4 0.0345991 4.56752 40.3898 18.1253 
106 3 4 0.0486193 3.37091 39.4422 18.8488 
107 3 4 0.0792028 1.4544 33.9803 23.9803 
108 3 4 0.0474788 1.04886 33.5855 22.3724 
109 3 4 0.0514295 -0.626304 35.2059 23.5565 
110 3 4 0.0777454 0.856794 36.0153 20.7355 
111 3 4 0.0471275 -0.929716 36.1674 21.1218 
112 4 1 -0.0133918 5.3685 3.30371 12.2804 
113 4 1 -0.0367948 6.05386 3.72058 11.1582 
114 4 1 -0.0326363 6.65359 2.80515 10.2638 
115 4 1 -0.0600596 6.52748 1.4474 10.617 
116 4 1 -0.0215192 5.90469 1.00722 11.7595 
117 4 1 0.147524 5.28085 1.94392 12.624 
118 4 2 -0.489756 4.60164 1.49455 13.7093 
119 4 1 0.0988895 3.16652 1.27095 13.8954 
120 4 1 0.0981053 2.21871 2.1086 13.1436 
121 4 5 0.08682 1.42703 3.04873 14.0156 
122 4 6 -0.447871 0.730468 2.02816 13.3437 
123 4 1 -0.036788 7.32614 3.23053 8.95333 
124 4 1 -0.0294281 8.86707 3.37511 9.13467 
125 4 1 -0.0408819 9.51639 3.20214 10.3062 
126 4 1 -0.00856041 10.9219 2.89059 10.4861 
127 4 1 0.158883 11.8964 3.10484 9.55273 
128 4 1 -0.0141791 11.2355 3.44035 8.3921 
129 4 1 -0.058051 9.81258 3.60598 8.17734 
130 4 2 -0.518764 13.2784 2.95035 9.76858 
131 4 1 -0.0929353 7.045 2.13238 7.88923 
132 4 1 -0.0766721 6.68586 4.55334 8.44043 
133 4 1 0.105885 14.1995 3.70159 10.6757 
134 4 1 0.103548 15.0581 4.76768 10.0698 
135 4 5 0.0479715 15.5943 5.52221 11.266 
136 4 6 -0.593483 14.2433 5.63811 9.18939 
137 4 4 0.0767538 4.84602 4.00652 12.8916 
138 4 4 0.0411891 6.83098 0.654867 10.0319 
139 4 4 0.0661632 5.82772 -0.0328836 12.0271 
140 4 4 0.116001 6.10286 4.8003 11.0059 
141 4 4 0.0870859 3.08288 0.134233 13.7622 
142 4 4 0.07207 2.87686 1.24943 14.9997 
143 4 4 0.0903919 2.45132 2.21239 12.0755 
144 4 4 0.0764614 1.24604 4.1021 13.8272 
145 4 4 0.0585742 1.50963 2.98246 15.1063 
146 4 4 0.0588251 8.89416 3.07589 11.1753 
147 4 4 0.0791969 11.8593 3.70688 7.57073 
148 4 4 0.0386575 9.48055 3.67951 7.16848 
149 4 4 0.0602684 11.1994 2.51803 11.4356 
150 4 4 0.0349808 6.04188 1.83821 7.73884 
151 4 4 0.0356339 7.58654 1.24867 8.15417 
152 4 4 0.0291171 7.35382 2.30473 6.87056 
153 4 4 0.0467992 5.58798 4.45677 8.36189 
154 4 4 0.0362027 7.08735 4.87793 7.50947 
155 4 4 0.075744 6.9657 5.39334 9.08307 
156 4 4 0.0466376 14.8302 2.98809 11.2187 
157 4 4 0.121652 13.5853 4.09553 11.3852 
158 4 4 0.0493565 15.8312 4.38712 9.41228 
159 4 4 0.0440638 15.9571 4.80923 12.0275 
160 4 4 0.060864 16.4656 6.0707 11.0013 
161 5 1 -0.0238213 13.6668 6.49447 3.86374 
162 5 1 -0.0459384 12.4684 6.89212 4.50852 
163 5 1 -0.0289554 11.4601 7.68216 3.92221 
164 5 1 -0.0532817 12.0333 8.3184 2.86931 
165 5 1 -0.0210946 13.333 7.97449 2.28916 
166 5 1 0.147373 14.2345 6.98554 2.66702 
167 5 2 -0.480994 15.3828 6.66499 2.01623 
168 5 1 0.0959141 15.324 5.7192 0.837706 
169 5 1 0.118275 14.2264 4.67542 0.953183 
170 5 5 0.0876471 14.6011 3.66982 2.01624 
171 5 6 -0.57894 14.13 3.83363 -0.215741 
172 5 1 -0.0344436 9.93197 7.71404 4.44621 
173 5 1 -0.0247196 10.0021 7.74233 5.93149 
174 5 1 -0.05221 10.1172 6.53205 6.66675 
175 5 1 -0.00495542 10.1201 6.64721 8.05174 
176 5 1 0.157422 10.1424 7.8754 8.77951 
177 5 1 -0.0269727 9.95479 9.02159 8.01935 
178 5 1 -0.054451 9.86432 8.96702 6.63063 
179 5 2 -0.481218 10.2873 7.97288 10.0943 
180 5 1 -0.084236 9.22684 8.91134 3.89081 
181 5 1 -0.0883076 9.37976 6.38868 3.89067 
182 5 1 0.084671 11.6656 8.29144 10.6079 
183 5 1 0.118744 12.3655 7.29845 11.4758 
184 5 5 0.0625086 13.8269 7.48822 11.3169 
185 5 6 -0.568713 12.0567 5.87265 11.1156 
186 5 4 0.059568 14.3346 5.87917 4.43465 
187 5 4 0.0430628 11.3404 8.9393 2.29453 
188 5 4 0.0648684 13.7155 8.41981 1.36672 
189 5 4 0.0568195 12.2438 6.36788 5.395 
190 5 4 0.0720322 15.3951 6.1743 -0.146352 
191 5 4 0.0802101 16.3076 5.16401 0.792547 
192 5 4 0.0691458 13.2162 5.09417 1.09318 
193 5 4 0.0717493 14.8708 4.1049 2.96139 
194 5 4 0.0931913 15.5253 3.17694 1.68076 
195 5 4 0.0404562 10.1892 5.56036 6.25053 
196 5 4 0.0529536 9.89027 9.89852 8.59759 
197 5 4 0.0421915 9.79397 9.94598 6.36868 
198 5 4 0.0855359 10.0472 5.76013 8.63439 
199 5 4 0.0407497 8.42997 9.27632 4.46082 