LAMMPS (12 Dec 2018)
  using 1 OpenMP thread(s) per MPI task
# input script for SWNT simulation in LAMMPS
#-------10--------20--------30--------40--------50--------60--------70--------80

# Variables
variable input index 4Epon-2DETDA-Packmol-H.model

# INITIALIZATION
units		    real
boundary            p p p
atom_style          full

# ATOM DEFINITION

read_data           ${input}
read_data           4Epon-2DETDA-Packmol-H.model
  orthogonal box = (0 0 0) to (25 25 25)
  1 by 1 by 1 MPI processor grid
  reading atoms ...
  258 atoms
  0 = max # of 1-2 neighbors
  0 = max # of 1-3 neighbors
  0 = max # of 1-4 neighbors
  1 = max # of special neighbors

# FORCE FIELD

pair_style          reax/c NULL
pair_coeff          * * ffield.reax C O N H C O H

# SETTINGS

neighbor	    1.0 bin
neigh_modify	    delay 1


#----------------GROUPS-----------------------------------------


# -------------------------------------------------------------------------
variable peng equal pe
variable keng equal ke
variable temp equal temp
variable Pr equal press
variable istep equal step
variable density equal density

variable lx equal lx
variable ly equal ly
variable lz equal lz
variable lx0 equal ${lx}
variable lx0 equal 25
variable ly0 equal ${ly}
variable ly0 equal 25
variable lz0 equal ${lz}
variable lz0 equal 25

# fix b all print 10000 "${istep},${lx},${ly},${lz}" file Box-Boundaries.txt screen no

variable Cx equal x[1]
variable Cy equal y[1]
variable Cz equal z[1]

variable Ox equal x[3]
variable Oy equal y[3]
variable Oz equal z[3]

variable Nx equal x[8]
variable Ny equal y[8]
variable Nz equal z[8]

variable dCO equal sqrt((v_Cx-v_Ox)^2+(v_Cy-v_Oy)^2+(v_Cz-v_Oz)^2)
variable dCN equal sqrt((v_Cx-v_Nx)^2+(v_Cy-v_Ny)^2+(v_Cz-v_Nz)^2)


# fix distOutput all print 1000 "${istep} ${dCO} ${dCN}" file distances.txt screen no


compute PEatomic all pe/atom
variable PEatomic atom c_PEatomic

variable Cenergy equal v_PEatomic[1]
variable Oenergy equal v_PEatomic[3]
variable Nenergy equal v_PEatomic[8]

# fix EnergyOutput all print 1000 "${istep} ${Cenergy} ${Oenergy} ${Nenergy}" file energies.txt screen no


# ------- COUNTS ---------------------------------------------------------
variable Nall equal count(all)

# ------- calculate force and displacement -------------------------------
compute 55 all property/atom fx
compute 56 all reduce sum c_55
variable xforce_right equal c_56

# --------------------- Global Stress Components --------------------------

variable p1 equal "-pxx/10000"
variable p2 equal "-pyy/10000"
variable p3 equal "-pzz/10000"
variable p4 equal "-pxy/10000"
variable p5 equal "-pxz/10000"
variable p6 equal "-pyz/10000"
variable hs equal "(v_p1+v_p2+v_p3)/3"            # Hydrostatic stress

# fix strecom1 all print 1000 "${istep},${p1},${p2},${p3},${p4},${p5},${p6},${hs}" file stress-components-all.txt screen no

# ------------ Per Atom Properties ----------------------

# compute vecX all stress/atom NULL virial

# ------------------------------------------------------------------------------
thermo_style custom step cpu temp pe vol pzz
thermo 10000

timestep 0.25            # fs

fix 30 all print 1000 "${istep},${peng},${keng},${temp},${Pr},${density}" file silica-ETP-data.txt screen no
# fix 3030 all print 10 "${istep},${peng}" file pe-10.txt screen no


fix 46 all qeq/reax 1 0.0 10.0 1.0e-6 reax/c
# fix wref all wall/reflect xlo 0.0 xhi 30.0 ylo 0.0 yhi 30.0 zlo -15.0 zhi 15.0 units box

# ----------------------output for VMD-----------------------------------------------

dump 		1 all custom 50000 dump.coord id mol type q x y z
dump_modify    1 sort 1

dump 		4 all xyz 50000 dump.xyz
dump_modify 	4 element C O N H C O H

dump        5 all custom 50000 dump-unwrapped id mol type q xu yu zu
dump_modify 5 sort 1

fix 41 all reax/c/species 1 1 1000 species-water.out element C O N H C O H
fix 42 all reax/c/bonds 10000 bonds.txt

#------------MINIMIZE ENERGY ---------------------------------------------------
# minimize 0.0 1.0e-8 1000 100000

# min_style sd
# minimize 0 1.0e-6 100000 100000
# min_style cg
# minimize 0 1.0e-6 100000 100000

#------------ NVT RELAXATION @ 300 K -------------------------------------------
# fix 61 all npt temp 300.0 300.0 100.0 x 1.0 1.0 1000.0 y 1.0 1.0 1000.0 z 1.0 1.0 1000.0 couple none
fix 61 all nve
fix 62 all temp/berendsen 300.0 300.0 10.0
# fix 62 all momentum 500 linear 1 1 1
# run 100000
# unfix 61

print "Run is initialized!"
Run is initialized!
run 0
Neighbor list info ...
  update every 1 steps, delay 1 steps, check yes
  max neighbors/atom: 2000, page size: 100000
  master list distance cutoff = 11
  ghost atom cutoff = 11
  binsize = 5.5, bins = 5 5 5
  2 neighbor lists, perpetual/occasional/extra = 2 0 0
  (1) pair reax/c, perpetual
      attributes: half, newton off, ghost
      pair build: half/bin/newtoff/ghost
      stencil: half/ghost/bin/3d/newtoff
      bin: standard
  (2) fix qeq/reax, perpetual, copy from (1)
      attributes: half, newton off, ghost
      pair build: copy
      stencil: none
      bin: none
Per MPI rank memory allocation (min/avg/max) = 51.61 | 51.61 | 51.61 Mbytes
Step CPU Temp PotEng Volume Pzz 
       0            0            0   -27363.374        15625   -5811.8511 
Loop time of 7.34814e-07 on 1 procs for 0 steps with 258 atoms

272.2% CPU use with 1 MPI tasks x 1 OpenMP threads

MPI task timing breakdown:
Section |  min time  |  avg time  |  max time  |%varavg| %total
---------------------------------------------------------------
Pair    | 0          | 0          | 0          |   0.0 |  0.00
Bond    | 0          | 0          | 0          |   0.0 |  0.00
Neigh   | 0          | 0          | 0          |   0.0 |  0.00
Comm    | 0          | 0          | 0          |   0.0 |  0.00
Output  | 0          | 0          | 0          |   0.0 |  0.00
Modify  | 0          | 0          | 0          |   0.0 |  0.00
Other   |            | 7.348e-07  |            |       |100.00

Nlocal:    258 ave 258 max 258 min
Histogram: 1 0 0 0 0 0 0 0 0 0
Nghost:    1233 ave 1233 max 1233 min
Histogram: 1 0 0 0 0 0 0 0 0 0
Neighs:    19183 ave 19183 max 19183 min
Histogram: 1 0 0 0 0 0 0 0 0 0

Total # of neighbors = 19183
Ave neighs/atom = 74.3527
Ave special neighs/atom = 0
Neighbor list builds = 0
Dangerous builds = 0
run 50000
Per MPI rank memory allocation (min/avg/max) = 51.61 | 51.61 | 51.61 Mbytes
Step CPU Temp PotEng Volume Pzz 
       0            0            0   -27363.374        15625   -5717.7152 
   10000     223.8102    295.22002   -27714.192        15625   -365.43928 
   20000    455.83998    315.38438   -27759.949        15625    1390.9739 
   30000    695.49129    298.00586   -27741.307        15625    715.73541 
   40000    926.36557    305.66555   -27730.344        15625     662.5574 
   50000    1153.2268    282.18784   -27732.842        15625   -1785.7275 
Loop time of 1153.23 on 1 procs for 50000 steps with 258 atoms

Performance: 0.937 ns/day, 25.627 hours/ns, 43.357 timesteps/s
96.5% CPU use with 1 MPI tasks x 1 OpenMP threads

MPI task timing breakdown:
Section |  min time  |  avg time  |  max time  |%varavg| %total
---------------------------------------------------------------
Pair    | 1009.4     | 1009.4     | 1009.4     |   0.0 | 87.53
Bond    | 0.0099653  | 0.0099653  | 0.0099653  |   0.0 |  0.00
Neigh   | 2.2622     | 2.2622     | 2.2622     |   0.0 |  0.20
Comm    | 0.50831    | 0.50831    | 0.50831    |   0.0 |  0.04
Output  | 0.002195   | 0.002195   | 0.002195   |   0.0 |  0.00
Modify  | 140.81     | 140.81     | 140.81     |   0.0 | 12.21
Other   |            | 0.2134     |            |       |  0.02

Nlocal:    258 ave 258 max 258 min
Histogram: 1 0 0 0 0 0 0 0 0 0
Nghost:    1192 ave 1192 max 1192 min
Histogram: 1 0 0 0 0 0 0 0 0 0
Neighs:    23602 ave 23602 max 23602 min
Histogram: 1 0 0 0 0 0 0 0 0 0

Total # of neighbors = 23602
Ave neighs/atom = 91.4806
Ave special neighs/atom = 0
Neighbor list builds = 1174
Dangerous builds = 0
run 50000
Per MPI rank memory allocation (min/avg/max) = 52.19 | 52.19 | 52.19 Mbytes
Step CPU Temp PotEng Volume Pzz 
   50000            0    282.18784   -27732.842        15625   -1742.5457 
   60000    237.80354    299.73386   -27730.464        15625    267.34089 
   70000    472.18914    304.70554   -27738.682        15625   -993.52107 
   80000    708.17108    289.22861   -27740.346        15625    12.883175 
   90000    952.57888    304.97317   -27746.481        15625   -1434.1774 
  100000    1195.7201    290.41132   -27748.169        15625    2076.4006 
Loop time of 1195.72 on 1 procs for 50000 steps with 258 atoms

Performance: 0.903 ns/day, 26.572 hours/ns, 41.816 timesteps/s
96.6% CPU use with 1 MPI tasks x 1 OpenMP threads

MPI task timing breakdown:
Section |  min time  |  avg time  |  max time  |%varavg| %total
---------------------------------------------------------------
Pair    | 1061.6     | 1061.6     | 1061.6     |   0.0 | 88.78
Bond    | 0.010247   | 0.010247   | 0.010247   |   0.0 |  0.00
Neigh   | 2.894      | 2.894      | 2.894      |   0.0 |  0.24
Comm    | 0.58005    | 0.58005    | 0.58005    |   0.0 |  0.05
Output  | 0.0020635  | 0.0020635  | 0.0020635  |   0.0 |  0.00
Modify  | 130.41     | 130.41     | 130.41     |   0.0 | 10.91
Other   |            | 0.225      |            |       |  0.02

Nlocal:    258 ave 258 max 258 min
Histogram: 1 0 0 0 0 0 0 0 0 0
Nghost:    1286 ave 1286 max 1286 min
Histogram: 1 0 0 0 0 0 0 0 0 0
Neighs:    22257 ave 22257 max 22257 min
Histogram: 1 0 0 0 0 0 0 0 0 0

Total # of neighbors = 22257
Ave neighs/atom = 86.2674
Ave special neighs/atom = 0
Neighbor list builds = 1140
Dangerous builds = 0
run 50000
Per MPI rank memory allocation (min/avg/max) = 54.37 | 54.37 | 54.37 Mbytes
Step CPU Temp PotEng Volume Pzz 
  100000            0    290.41132   -27748.169        15625    598.32273 
  110000    243.19231    305.59296   -27758.621        15625    286.78793 
  120000    494.84582    303.90031   -27777.613        15625   -1862.3906 
  130000     754.1336    286.51328   -27759.472        15625    536.63476 
  140000     990.9948    308.32988   -27774.291        15625   -2839.2226 
  150000     1229.859    295.35589   -27770.108        15625     2864.978 
Loop time of 1229.86 on 1 procs for 50000 steps with 258 atoms

Performance: 0.878 ns/day, 27.330 hours/ns, 40.655 timesteps/s
96.6% CPU use with 1 MPI tasks x 1 OpenMP threads

MPI task timing breakdown:
Section |  min time  |  avg time  |  max time  |%varavg| %total
---------------------------------------------------------------
Pair    | 1088.2     | 1088.2     | 1088.2     |   0.0 | 88.48
Bond    | 0.010342   | 0.010342   | 0.010342   |   0.0 |  0.00
Neigh   | 2.4974     | 2.4974     | 2.4974     |   0.0 |  0.20
Comm    | 0.5613     | 0.5613     | 0.5613     |   0.0 |  0.05
Output  | 0.0064387  | 0.0064387  | 0.0064387  |   0.0 |  0.00
Modify  | 138.33     | 138.33     | 138.33     |   0.0 | 11.25
Other   |            | 0.2244     |            |       |  0.02

Nlocal:    258 ave 258 max 258 min
Histogram: 1 0 0 0 0 0 0 0 0 0
Nghost:    1168 ave 1168 max 1168 min
Histogram: 1 0 0 0 0 0 0 0 0 0
Neighs:    26422 ave 26422 max 26422 min
Histogram: 1 0 0 0 0 0 0 0 0 0

Total # of neighbors = 26422
Ave neighs/atom = 102.411
Ave special neighs/atom = 0
Neighbor list builds = 1068
Dangerous builds = 0
run 50000
Per MPI rank memory allocation (min/avg/max) = 54.42 | 54.42 | 54.42 Mbytes
Step CPU Temp PotEng Volume Pzz 
  150000            0    295.35589   -27770.108        15625    2894.0212 
  160000    235.39536    299.29545    -27761.24        15625    1031.4267 
  170000    473.60129    304.44097   -27791.794        15625   -4473.4802 
  180000    725.64909    301.97135   -27784.723        15625    227.82619 
  190000    973.65337    306.05362   -27798.462        15625    489.69689 
  200000    1220.0948    303.80876   -27790.309        15625    2491.7558 
Loop time of 1220.09 on 1 procs for 50000 steps with 258 atoms

Performance: 0.885 ns/day, 27.113 hours/ns, 40.980 timesteps/s
96.5% CPU use with 1 MPI tasks x 1 OpenMP threads

MPI task timing breakdown:
Section |  min time  |  avg time  |  max time  |%varavg| %total
---------------------------------------------------------------
Pair    | 1078.4     | 1078.4     | 1078.4     |   0.0 | 88.39
Bond    | 0.01021    | 0.01021    | 0.01021    |   0.0 |  0.00
Neigh   | 2.4861     | 2.4861     | 2.4861     |   0.0 |  0.20
Comm    | 0.53573    | 0.53573    | 0.53573    |   0.0 |  0.04
Output  | 0.0021885  | 0.0021885  | 0.0021885  |   0.0 |  0.00
Modify  | 138.43     | 138.43     | 138.43     |   0.0 | 11.35
Other   |            | 0.2151     |            |       |  0.02

Nlocal:    258 ave 258 max 258 min
Histogram: 1 0 0 0 0 0 0 0 0 0
Nghost:    1163 ave 1163 max 1163 min
Histogram: 1 0 0 0 0 0 0 0 0 0
Neighs:    26305 ave 26305 max 26305 min
Histogram: 1 0 0 0 0 0 0 0 0 0

Total # of neighbors = 26305
Ave neighs/atom = 101.957
Ave special neighs/atom = 0
Neighbor list builds = 1142
Dangerous builds = 0
run 50000
Per MPI rank memory allocation (min/avg/max) = 54.42 | 54.42 | 54.42 Mbytes
Step CPU Temp PotEng Volume Pzz 
  200000            0    303.80876   -27790.309        15625    2834.6607 
  210000    255.04983    299.07983   -27804.801        15625   -1990.9445 
  220000    508.69802     300.9051   -27801.901        15625    2828.4236 
  230000    769.43759    284.02552   -27782.255        15625   -2674.2567 
  240000    1036.3165    295.25964   -27792.979        15625   -2423.6507 
  250000    1304.2255    300.71343    -27793.97        15625    4897.7565 
Loop time of 1304.23 on 1 procs for 50000 steps with 258 atoms

Performance: 0.828 ns/day, 28.983 hours/ns, 38.337 timesteps/s
96.7% CPU use with 1 MPI tasks x 1 OpenMP threads

MPI task timing breakdown:
Section |  min time  |  avg time  |  max time  |%varavg| %total
---------------------------------------------------------------
Pair    | 1149.3     | 1149.3     | 1149.3     |   0.0 | 88.12
Bond    | 0.0099052  | 0.0099052  | 0.0099052  |   0.0 |  0.00
Neigh   | 1.9578     | 1.9578     | 1.9578     |   0.0 |  0.15
Comm    | 0.54839    | 0.54839    | 0.54839    |   0.0 |  0.04
Output  | 0.0021873  | 0.0021873  | 0.0021873  |   0.0 |  0.00
Modify  | 152.15     | 152.15     | 152.15     |   0.0 | 11.67
Other   |            | 0.2276     |            |       |  0.02

Nlocal:    258 ave 258 max 258 min
Histogram: 1 0 0 0 0 0 0 0 0 0
Nghost:    1184 ave 1184 max 1184 min
Histogram: 1 0 0 0 0 0 0 0 0 0
Neighs:    28710 ave 28710 max 28710 min
Histogram: 1 0 0 0 0 0 0 0 0 0

Total # of neighbors = 28710
Ave neighs/atom = 111.279
Ave special neighs/atom = 0
Neighbor list builds = 945
Dangerous builds = 0
run 50000
Per MPI rank memory allocation (min/avg/max) = 54.46 | 54.46 | 54.46 Mbytes
Step CPU Temp PotEng Volume Pzz 
  250000            0    300.71343    -27793.97        15625    4897.7554 
  260000    266.55239     319.9011   -27821.534        15625   -3264.1367 
  270000    528.69977    299.27132   -27796.457        15625   -2241.2446 
  280000    790.09135    283.26565   -27802.258        15625   -2557.8787 
  290000    1055.1715    292.41083   -27797.875        15625    2198.5356 
  300000    1323.1154    319.34355   -27826.062        15625   -101.32917 
Loop time of 1323.12 on 1 procs for 50000 steps with 258 atoms

Performance: 0.816 ns/day, 29.403 hours/ns, 37.790 timesteps/s
96.8% CPU use with 1 MPI tasks x 1 OpenMP threads

MPI task timing breakdown:
Section |  min time  |  avg time  |  max time  |%varavg| %total
---------------------------------------------------------------
Pair    | 1162.8     | 1162.8     | 1162.8     |   0.0 | 87.88
Bond    | 0.010409   | 0.010409   | 0.010409   |   0.0 |  0.00
Neigh   | 1.9751     | 1.9751     | 1.9751     |   0.0 |  0.15
Comm    | 0.55368    | 0.55368    | 0.55368    |   0.0 |  0.04
Output  | 0.0021626  | 0.0021626  | 0.0021626  |   0.0 |  0.00
Modify  | 157.58     | 157.58     | 157.58     |   0.0 | 11.91
Other   |            | 0.2279     |            |       |  0.02

Nlocal:    258 ave 258 max 258 min
Histogram: 1 0 0 0 0 0 0 0 0 0
Nghost:    1178 ave 1178 max 1178 min
Histogram: 1 0 0 0 0 0 0 0 0 0
Neighs:    28546 ave 28546 max 28546 min
Histogram: 1 0 0 0 0 0 0 0 0 0

Total # of neighbors = 28546
Ave neighs/atom = 110.643
Ave special neighs/atom = 0
Neighbor list builds = 955
Dangerous builds = 0
run 50000
Per MPI rank memory allocation (min/avg/max) = 54.45 | 54.45 | 54.45 Mbytes
Step CPU Temp PotEng Volume Pzz 
  300000            0    319.34355   -27826.062        15625   -103.59838 
  310000    263.12325    299.12389   -27811.592        15625   -159.41692 
  320000    526.09112    276.47376    -27801.91        15625    4206.0882 
  330000    787.80515    292.60644   -27803.288        15625   -1235.1014 
  340000     1056.347    304.89597   -27827.618        15625    3896.1733 
  350000    1320.2993    307.28176   -27804.397        15625    2101.2975 
Loop time of 1320.3 on 1 procs for 50000 steps with 258 atoms

Performance: 0.818 ns/day, 29.340 hours/ns, 37.870 timesteps/s
96.7% CPU use with 1 MPI tasks x 1 OpenMP threads

MPI task timing breakdown:
Section |  min time  |  avg time  |  max time  |%varavg| %total
---------------------------------------------------------------
Pair    | 1162.2     | 1162.2     | 1162.2     |   0.0 | 88.02
Bond    | 0.010896   | 0.010896   | 0.010896   |   0.0 |  0.00
Neigh   | 2.0108     | 2.0108     | 2.0108     |   0.0 |  0.15
Comm    | 0.55174    | 0.55174    | 0.55174    |   0.0 |  0.04
Output  | 0.0079463  | 0.0079463  | 0.0079463  |   0.0 |  0.00
Modify  | 155.32     | 155.32     | 155.32     |   0.0 | 11.76
Other   |            | 0.2199     |            |       |  0.02

Nlocal:    258 ave 258 max 258 min
Histogram: 1 0 0 0 0 0 0 0 0 0
Nghost:    1141 ave 1141 max 1141 min
Histogram: 1 0 0 0 0 0 0 0 0 0
Neighs:    28140 ave 28140 max 28140 min
Histogram: 1 0 0 0 0 0 0 0 0 0

Total # of neighbors = 28140
Ave neighs/atom = 109.07
Ave special neighs/atom = 0
Neighbor list builds = 935
Dangerous builds = 0
run 50000
Per MPI rank memory allocation (min/avg/max) = 54.45 | 54.45 | 54.45 Mbytes
Step CPU Temp PotEng Volume Pzz 
  350000            0    307.28176   -27804.397        15625    2101.2933 
  360000     261.6284    292.52179   -27813.272        15625   -699.68553 
  370000    526.30692    310.81755   -27840.066        15625    681.51196 
  380000    787.96906    306.89009   -27830.633        15625   -1655.0978 
  390000    1050.2413    293.99798   -27812.613        15625    -399.2263 
  400000    1314.1702     309.7754   -27836.573        15625   -995.22893 
Loop time of 1314.17 on 1 procs for 50000 steps with 258 atoms

Performance: 0.822 ns/day, 29.204 hours/ns, 38.047 timesteps/s
96.7% CPU use with 1 MPI tasks x 1 OpenMP threads

MPI task timing breakdown:
Section |  min time  |  avg time  |  max time  |%varavg| %total
---------------------------------------------------------------
Pair    | 1157.5     | 1157.5     | 1157.5     |   0.0 | 88.08
Bond    | 0.010875   | 0.010875   | 0.010875   |   0.0 |  0.00
Neigh   | 1.9338     | 1.9338     | 1.9338     |   0.0 |  0.15
Comm    | 0.55166    | 0.55166    | 0.55166    |   0.0 |  0.04
Output  | 0.0020933  | 0.0020933  | 0.0020933  |   0.0 |  0.00
Modify  | 153.95     | 153.95     | 153.95     |   0.0 | 11.71
Other   |            | 0.2189     |            |       |  0.02

Nlocal:    258 ave 258 max 258 min
Histogram: 1 0 0 0 0 0 0 0 0 0
Nghost:    1192 ave 1192 max 1192 min
Histogram: 1 0 0 0 0 0 0 0 0 0
Neighs:    29619 ave 29619 max 29619 min
Histogram: 1 0 0 0 0 0 0 0 0 0

Total # of neighbors = 29619
Ave neighs/atom = 114.802
Ave special neighs/atom = 0
Neighbor list builds = 909
Dangerous builds = 0
run 50000
Per MPI rank memory allocation (min/avg/max) = 54.47 | 54.47 | 54.47 Mbytes
Step CPU Temp PotEng Volume Pzz 
  400000            0     309.7754   -27836.573        15625   -993.78702 
  410000    259.79446    296.17765   -27838.957        15625    1395.5694 
  420000     521.1457    300.08074   -27833.292        15625    1402.6412 
  430000    781.27217    309.62751   -27855.222        15625    1319.4846 
  440000    1041.8784    299.59739   -27837.847        15625    1713.4675 
  450000    1300.4597    295.91353   -27853.021        15625    8.2693937 
Loop time of 1300.46 on 1 procs for 50000 steps with 258 atoms

Performance: 0.830 ns/day, 28.899 hours/ns, 38.448 timesteps/s
96.7% CPU use with 1 MPI tasks x 1 OpenMP threads

MPI task timing breakdown:
Section |  min time  |  avg time  |  max time  |%varavg| %total
---------------------------------------------------------------
Pair    | 1147.5     | 1147.5     | 1147.5     |   0.0 | 88.24
Bond    | 0.011002   | 0.011002   | 0.011002   |   0.0 |  0.00
Neigh   | 1.9222     | 1.9222     | 1.9222     |   0.0 |  0.15
Comm    | 0.54908    | 0.54908    | 0.54908    |   0.0 |  0.04
Output  | 0.0021994  | 0.0021994  | 0.0021994  |   0.0 |  0.00
Modify  | 150.29     | 150.29     | 150.29     |   0.0 | 11.56
Other   |            | 0.2207     |            |       |  0.02

Nlocal:    258 ave 258 max 258 min
Histogram: 1 0 0 0 0 0 0 0 0 0
Nghost:    1240 ave 1240 max 1240 min
Histogram: 1 0 0 0 0 0 0 0 0 0
Neighs:    29908 ave 29908 max 29908 min
Histogram: 1 0 0 0 0 0 0 0 0 0

Total # of neighbors = 29908
Ave neighs/atom = 115.922
Ave special neighs/atom = 0
Neighbor list builds = 881
Dangerous builds = 0
run 50000
Per MPI rank memory allocation (min/avg/max) = 54.47 | 54.47 | 54.47 Mbytes
Step CPU Temp PotEng Volume Pzz 
  450000            0    295.91353   -27853.021        15625    8.2644663 
  460000    254.61704    305.06824   -27852.129        15625    393.30096 
  470000    504.21397    305.99831    -27836.26        15625    982.10717 
  480000    748.48239    295.50893   -27824.464        15625   -1015.2499 
  490000    983.74528    288.34458   -27807.266        15625   -708.70188 
  500000    1219.4458     310.2922   -27825.069        15625    1070.1072 
Loop time of 1219.45 on 1 procs for 50000 steps with 258 atoms

Performance: 0.886 ns/day, 27.099 hours/ns, 41.002 timesteps/s
96.5% CPU use with 1 MPI tasks x 1 OpenMP threads

MPI task timing breakdown:
Section |  min time  |  avg time  |  max time  |%varavg| %total
---------------------------------------------------------------
Pair    | 1090.9     | 1090.9     | 1090.9     |   0.0 | 89.46
Bond    | 0.011387   | 0.011387   | 0.011387   |   0.0 |  0.00
Neigh   | 2.0983     | 2.0983     | 2.0983     |   0.0 |  0.17
Comm    | 0.57791    | 0.57791    | 0.57791    |   0.0 |  0.05
Output  | 0.002052   | 0.002052   | 0.002052   |   0.0 |  0.00
Modify  | 125.63     | 125.63     | 125.63     |   0.0 | 10.30
Other   |            | 0.2201     |            |       |  0.02

Nlocal:    258 ave 258 max 258 min
Histogram: 1 0 0 0 0 0 0 0 0 0
Nghost:    1406 ave 1406 max 1406 min
Histogram: 1 0 0 0 0 0 0 0 0 0
Neighs:    20410 ave 20410 max 20410 min
Histogram: 1 0 0 0 0 0 0 0 0 0

Total # of neighbors = 20410
Ave neighs/atom = 79.1085
Ave special neighs/atom = 0
Neighbor list builds = 827
Dangerous builds = 0
run 50000
Per MPI rank memory allocation (min/avg/max) = 54.36 | 54.36 | 54.36 Mbytes
Step CPU Temp PotEng Volume Pzz 
  500000            0     310.2922   -27825.069        15625    1070.1033 
  510000    229.51052    296.12265   -27789.956        15625   -2518.2313 
  520000    463.97278    314.74105   -27832.377        15625    3545.8754 
  530000    697.92116    295.34267    -27792.59        15625   -4394.8706 
  540000    931.47519    322.52487   -27776.537        15625    1424.5266 
  550000    1148.6349    290.16034   -27780.467        15625    1380.6457 
Loop time of 1148.63 on 1 procs for 50000 steps with 258 atoms

Performance: 0.940 ns/day, 25.525 hours/ns, 43.530 timesteps/s
96.2% CPU use with 1 MPI tasks x 1 OpenMP threads

MPI task timing breakdown:
Section |  min time  |  avg time  |  max time  |%varavg| %total
---------------------------------------------------------------
Pair    | 1038.9     | 1038.9     | 1038.9     |   0.0 | 90.44
Bond    | 0.011246   | 0.011246   | 0.011246   |   0.0 |  0.00
Neigh   | 2.6124     | 2.6124     | 2.6124     |   0.0 |  0.23
Comm    | 0.60589    | 0.60589    | 0.60589    |   0.0 |  0.05
Output  | 0.013205   | 0.013205   | 0.013205   |   0.0 |  0.00
Modify  | 106.28     | 106.28     | 106.28     |   0.0 |  9.25
Other   |            | 0.226      |            |       |  0.02

Nlocal:    258 ave 258 max 258 min
Histogram: 1 0 0 0 0 0 0 0 0 0
Nghost:    1126 ave 1126 max 1126 min
Histogram: 1 0 0 0 0 0 0 0 0 0
Neighs:    27508 ave 27508 max 27508 min
Histogram: 1 0 0 0 0 0 0 0 0 0

Total # of neighbors = 27508
Ave neighs/atom = 106.62
Ave special neighs/atom = 0
Neighbor list builds = 896
Dangerous builds = 0
run 50000
Per MPI rank memory allocation (min/avg/max) = 57.62 | 57.62 | 57.62 Mbytes
Step CPU Temp PotEng Volume Pzz 
  550000            0    290.16034   -27780.467        15625    1301.1177 
  560000    232.01632    297.57389   -27761.282        15625    319.40298 
  570000    459.01445    303.38197   -27766.666        15625   -2705.5647 
  580000    702.78478    296.87509   -27759.111        15625    476.92788 
  590000    973.87125     294.0386   -27794.761        15625   -715.18452 
  600000     1261.996    283.10054   -27782.323        15625     4254.475 
Loop time of 1262 on 1 procs for 50000 steps with 258 atoms

Performance: 0.856 ns/day, 28.044 hours/ns, 39.620 timesteps/s
96.6% CPU use with 1 MPI tasks x 1 OpenMP threads

MPI task timing breakdown:
Section |  min time  |  avg time  |  max time  |%varavg| %total
---------------------------------------------------------------
Pair    | 1136.5     | 1136.5     | 1136.5     |   0.0 | 90.06
Bond    | 0.01108    | 0.01108    | 0.01108    |   0.0 |  0.00
Neigh   | 3.0503     | 3.0503     | 3.0503     |   0.0 |  0.24
Comm    | 0.63528    | 0.63528    | 0.63528    |   0.0 |  0.05
Output  | 0.0077804  | 0.0077804  | 0.0077804  |   0.0 |  0.00
Modify  | 121.54     | 121.54     | 121.54     |   0.0 |  9.63
Other   |            | 0.2279     |            |       |  0.02

Nlocal:    258 ave 258 max 258 min
Histogram: 1 0 0 0 0 0 0 0 0 0
Nghost:    1530 ave 1530 max 1530 min
Histogram: 1 0 0 0 0 0 0 0 0 0
Neighs:    32290 ave 32290 max 32290 min
Histogram: 1 0 0 0 0 0 0 0 0 0

Total # of neighbors = 32290
Ave neighs/atom = 125.155
Ave special neighs/atom = 0
Neighbor list builds = 957
Dangerous builds = 0
run 50000
Per MPI rank memory allocation (min/avg/max) = 57.69 | 57.69 | 57.69 Mbytes
Step CPU Temp PotEng Volume Pzz 
  600000            0    283.10054   -27782.323        15625    4297.9923 
  610000    288.82842    308.91935   -27796.403        15625    611.87263 
  620000    571.23718    289.05002   -27775.826        15625   -1594.8222 
  630000    853.70552    297.57379   -27784.903        15625   -2858.6597 
  640000    1144.6956    282.84265   -27777.853        15625    2462.8386 
  650000    1443.0056    297.23814    -27787.45        15625    1322.0961 
Loop time of 1443.01 on 1 procs for 50000 steps with 258 atoms

Performance: 0.748 ns/day, 32.067 hours/ns, 34.650 timesteps/s
97.0% CPU use with 1 MPI tasks x 1 OpenMP threads

MPI task timing breakdown:
Section |  min time  |  avg time  |  max time  |%varavg| %total
---------------------------------------------------------------
Pair    | 1294.1     | 1294.1     | 1294.1     |   0.0 | 89.68
Bond    | 0.011214   | 0.011214   | 0.011214   |   0.0 |  0.00
Neigh   | 3.2849     | 3.2849     | 3.2849     |   0.0 |  0.23
Comm    | 0.68365    | 0.68365    | 0.68365    |   0.0 |  0.05
Output  | 0.0021364  | 0.0021364  | 0.0021364  |   0.0 |  0.00
Modify  | 144.68     | 144.68     | 144.68     |   0.0 | 10.03
Other   |            | 0.2495     |            |       |  0.02

Nlocal:    258 ave 258 max 258 min
Histogram: 1 0 0 0 0 0 0 0 0 0
Nghost:    1458 ave 1458 max 1458 min
Histogram: 1 0 0 0 0 0 0 0 0 0
Neighs:    34032 ave 34032 max 34032 min
Histogram: 1 0 0 0 0 0 0 0 0 0

Total # of neighbors = 34032
Ave neighs/atom = 131.907
Ave special neighs/atom = 0
Neighbor list builds = 1049
Dangerous builds = 0
run 50000
Per MPI rank memory allocation (min/avg/max) = 57.71 | 57.71 | 57.71 Mbytes
Step CPU Temp PotEng Volume Pzz 
  650000            0    297.23814    -27787.45        15625    1618.4367 
  660000     298.2979    311.20496    -27818.43        15625    237.04876 
  670000    599.73856    308.02838   -27802.586        15625   -1123.0526 
  680000    901.64944    289.76863   -27798.121        15625   -148.19522 
  690000    1206.8188    315.89592   -27813.417        15625   -4404.3777 
  700000    1502.4792    307.40129   -27801.667        15625   -652.21245 
Loop time of 1502.48 on 1 procs for 50000 steps with 258 atoms

Performance: 0.719 ns/day, 33.388 hours/ns, 33.278 timesteps/s
97.2% CPU use with 1 MPI tasks x 1 OpenMP threads

MPI task timing breakdown:
Section |  min time  |  avg time  |  max time  |%varavg| %total
---------------------------------------------------------------
Pair    | 1349.3     | 1349.3     | 1349.3     |   0.0 | 89.81
Bond    | 0.012358   | 0.012358   | 0.012358   |   0.0 |  0.00
Neigh   | 3.0375     | 3.0375     | 3.0375     |   0.0 |  0.20
Comm    | 0.72485    | 0.72485    | 0.72485    |   0.0 |  0.05
Output  | 0.0075828  | 0.0075828  | 0.0075828  |   0.0 |  0.00
Modify  | 149.08     | 149.08     | 149.08     |   0.0 |  9.92
Other   |            | 0.2733     |            |       |  0.02

Nlocal:    258 ave 258 max 258 min
Histogram: 1 0 0 0 0 0 0 0 0 0
Nghost:    1500 ave 1500 max 1500 min
Histogram: 1 0 0 0 0 0 0 0 0 0
Neighs:    32994 ave 32994 max 32994 min
Histogram: 1 0 0 0 0 0 0 0 0 0

Total # of neighbors = 32994
Ave neighs/atom = 127.884
Ave special neighs/atom = 0
Neighbor list builds = 954
Dangerous builds = 0
run 50000
Per MPI rank memory allocation (min/avg/max) = 57.7 | 57.7 | 57.7 Mbytes
Step CPU Temp PotEng Volume Pzz 
  700000            0    307.40129   -27801.667        15625   -652.21648 
  710000    300.40774    322.01633   -27809.295        15625   -2289.0479 
  720000     605.0883    308.54428   -27819.014        15625   -4754.5149 
  730000    901.83206    295.38441   -27801.069        15625   -844.63084 
  740000     1203.844    298.90843   -27810.454        15625   -1895.4557 
  750000    1509.5127    290.55082   -27797.316        15625    5578.0541 
Loop time of 1509.51 on 1 procs for 50000 steps with 258 atoms

Performance: 0.715 ns/day, 33.545 hours/ns, 33.123 timesteps/s
97.2% CPU use with 1 MPI tasks x 1 OpenMP threads

MPI task timing breakdown:
Section |  min time  |  avg time  |  max time  |%varavg| %total
---------------------------------------------------------------
Pair    | 1356.7     | 1356.7     | 1356.7     |   0.0 | 89.88
Bond    | 0.0121     | 0.0121     | 0.0121     |   0.0 |  0.00
Neigh   | 3.2308     | 3.2308     | 3.2308     |   0.0 |  0.21
Comm    | 0.73277    | 0.73277    | 0.73277    |   0.0 |  0.05
Output  | 0.0020221  | 0.0020221  | 0.0020221  |   0.0 |  0.00
Modify  | 148.58     | 148.58     | 148.58     |   0.0 |  9.84
Other   |            | 0.2716     |            |       |  0.02

Nlocal:    258 ave 258 max 258 min
Histogram: 1 0 0 0 0 0 0 0 0 0
Nghost:    1446 ave 1446 max 1446 min
Histogram: 1 0 0 0 0 0 0 0 0 0
Neighs:    32742 ave 32742 max 32742 min
Histogram: 1 0 0 0 0 0 0 0 0 0

Total # of neighbors = 32742
Ave neighs/atom = 126.907
Ave special neighs/atom = 0
Neighbor list builds = 1015
Dangerous builds = 0
run 50000
Per MPI rank memory allocation (min/avg/max) = 57.69 | 57.69 | 57.69 Mbytes
Step CPU Temp PotEng Volume Pzz 
  750000            0    290.55082   -27797.316        15625    5906.7634 
  760000    305.17412    301.72741    -27818.72        15625   -1431.0966 
  770000    607.47282    294.08224   -27822.834        15625   -662.01545 
  780000     906.8748    310.03783   -27836.368        15625    1010.2171 
  790000    1205.8833    302.17791    -27831.35        15625    2488.1837 
  800000    1508.3017    314.35321   -27829.561        15625    5.5390673 
Loop time of 1508.3 on 1 procs for 50000 steps with 258 atoms

Performance: 0.716 ns/day, 33.518 hours/ns, 33.150 timesteps/s
97.2% CPU use with 1 MPI tasks x 1 OpenMP threads

MPI task timing breakdown:
Section |  min time  |  avg time  |  max time  |%varavg| %total
---------------------------------------------------------------
Pair    | 1353.6     | 1353.6     | 1353.6     |   0.0 | 89.74
Bond    | 0.012179   | 0.012179   | 0.012179   |   0.0 |  0.00
Neigh   | 3.1776     | 3.1776     | 3.1776     |   0.0 |  0.21
Comm    | 0.71798    | 0.71798    | 0.71798    |   0.0 |  0.05
Output  | 0.0020061  | 0.0020061  | 0.0020061  |   0.0 |  0.00
Modify  | 150.56     | 150.56     | 150.56     |   0.0 |  9.98
Other   |            | 0.2698     |            |       |  0.02

Nlocal:    258 ave 258 max 258 min
Histogram: 1 0 0 0 0 0 0 0 0 0
Nghost:    1426 ave 1426 max 1426 min
Histogram: 1 0 0 0 0 0 0 0 0 0
Neighs:    34340 ave 34340 max 34340 min
Histogram: 1 0 0 0 0 0 0 0 0 0

Total # of neighbors = 34340
Ave neighs/atom = 133.101
Ave special neighs/atom = 0
Neighbor list builds = 1033
Dangerous builds = 0
run 50000
Per MPI rank memory allocation (min/avg/max) = 57.72 | 57.72 | 57.72 Mbytes
Step CPU Temp PotEng Volume Pzz 
  800000            0    314.35321   -27829.561        15625    5.5380599 
  810000    304.68027    287.77963   -27814.347        15625   -979.84964 
  820000     611.2107    297.41003   -27830.502        15625    3314.7121 
  830000    912.65743    297.53744   -27818.676        15625     42.18529 
  840000    1213.9154    303.51192   -27825.821        15625   -1620.4358 
  850000    1521.4418    292.45413   -27826.946        15625    3195.0504 
Loop time of 1521.44 on 1 procs for 50000 steps with 258 atoms

Performance: 0.710 ns/day, 33.810 hours/ns, 32.864 timesteps/s
97.2% CPU use with 1 MPI tasks x 1 OpenMP threads

MPI task timing breakdown:
Section |  min time  |  avg time  |  max time  |%varavg| %total
---------------------------------------------------------------
Pair    | 1363.7     | 1363.7     | 1363.7     |   0.0 | 89.63
Bond    | 0.012309   | 0.012309   | 0.012309   |   0.0 |  0.00
Neigh   | 2.8404     | 2.8404     | 2.8404     |   0.0 |  0.19
Comm    | 0.70673    | 0.70673    | 0.70673    |   0.0 |  0.05
Output  | 0.0020429  | 0.0020429  | 0.0020429  |   0.0 |  0.00
Modify  | 153.96     | 153.96     | 153.96     |   0.0 | 10.12
Other   |            | 0.2661     |            |       |  0.02

Nlocal:    258 ave 258 max 258 min
Histogram: 1 0 0 0 0 0 0 0 0 0
Nghost:    1424 ave 1424 max 1424 min
Histogram: 1 0 0 0 0 0 0 0 0 0
Neighs:    35697 ave 35697 max 35697 min
Histogram: 1 0 0 0 0 0 0 0 0 0

Total # of neighbors = 35697
Ave neighs/atom = 138.36
Ave special neighs/atom = 0
Neighbor list builds = 941
Dangerous builds = 0
run 50000
Per MPI rank memory allocation (min/avg/max) = 57.73 | 57.73 | 57.73 Mbytes
Step CPU Temp PotEng Volume Pzz 
  850000            0    292.45413   -27826.946        15625    3195.0503 
  860000    305.26029    302.05852   -27832.853        15625   -705.51214 
  870000    608.21976     257.8146   -27783.435        15625   -4688.4258 
  880000    908.94205    295.94979   -27822.889        15625    537.38649 
  890000    1212.6136    305.95745   -27823.619        15625   -4353.6829 
  900000    1513.4955    307.00154   -27832.641        15625    912.16285 
Loop time of 1513.5 on 1 procs for 50000 steps with 258 atoms

Performance: 0.714 ns/day, 33.633 hours/ns, 33.036 timesteps/s
97.2% CPU use with 1 MPI tasks x 1 OpenMP threads

MPI task timing breakdown:
Section |  min time  |  avg time  |  max time  |%varavg| %total
---------------------------------------------------------------
Pair    | 1356.8     | 1356.8     | 1356.8     |   0.0 | 89.65
Bond    | 0.012235   | 0.012235   | 0.012235   |   0.0 |  0.00
Neigh   | 2.9372     | 2.9372     | 2.9372     |   0.0 |  0.19
Comm    | 0.70534    | 0.70534    | 0.70534    |   0.0 |  0.05
Output  | 0.0020106  | 0.0020106  | 0.0020106  |   0.0 |  0.00
Modify  | 152.79     | 152.79     | 152.79     |   0.0 | 10.10
Other   |            | 0.2672     |            |       |  0.02

Nlocal:    258 ave 258 max 258 min
Histogram: 1 0 0 0 0 0 0 0 0 0
Nghost:    1464 ave 1464 max 1464 min
Histogram: 1 0 0 0 0 0 0 0 0 0
Neighs:    33749 ave 33749 max 33749 min
Histogram: 1 0 0 0 0 0 0 0 0 0

Total # of neighbors = 33749
Ave neighs/atom = 130.81
Ave special neighs/atom = 0
Neighbor list builds = 964
Dangerous builds = 0
run 50000
Per MPI rank memory allocation (min/avg/max) = 57.71 | 57.71 | 57.71 Mbytes
Step CPU Temp PotEng Volume Pzz 
  900000            0    307.00154   -27832.641        15625    912.17044 
  910000    303.62003    285.21238   -27812.002        15625   -308.93573 
  920000    604.83549    315.61993   -27843.072        15625    1368.0875 
  930000    907.89127    298.67495   -27825.139        15625    707.99428 
  940000    1207.3548    306.65105   -27830.684        15625   -2133.2946 
  950000    1508.1544    300.67229   -27819.939        15625    1058.6912 
Loop time of 1508.15 on 1 procs for 50000 steps with 258 atoms

Performance: 0.716 ns/day, 33.515 hours/ns, 33.153 timesteps/s
97.1% CPU use with 1 MPI tasks x 1 OpenMP threads

MPI task timing breakdown:
Section |  min time  |  avg time  |  max time  |%varavg| %total
---------------------------------------------------------------
Pair    | 1352.6     | 1352.6     | 1352.6     |   0.0 | 89.69
Bond    | 0.012159   | 0.012159   | 0.012159   |   0.0 |  0.00
Neigh   | 2.8731     | 2.8731     | 2.8731     |   0.0 |  0.19
Comm    | 0.71223    | 0.71223    | 0.71223    |   0.0 |  0.05
Output  | 0.0021752  | 0.0021752  | 0.0021752  |   0.0 |  0.00
Modify  | 151.64     | 151.64     | 151.64     |   0.0 | 10.05
Other   |            | 0.2667     |            |       |  0.02

Nlocal:    258 ave 258 max 258 min
Histogram: 1 0 0 0 0 0 0 0 0 0
Nghost:    1448 ave 1448 max 1448 min
Histogram: 1 0 0 0 0 0 0 0 0 0
Neighs:    34203 ave 34203 max 34203 min
Histogram: 1 0 0 0 0 0 0 0 0 0

Total # of neighbors = 34203
Ave neighs/atom = 132.57
Ave special neighs/atom = 0
Neighbor list builds = 954
Dangerous builds = 0
run 50000
Per MPI rank memory allocation (min/avg/max) = 57.72 | 57.72 | 57.72 Mbytes
Step CPU Temp PotEng Volume Pzz 
  950000            0    300.67229   -27819.939        15625    1058.6893 
  960000    306.36116    294.60016   -27809.929        15625    125.28942 
  970000    611.13209    300.69522   -27822.946        15625   -1007.5324 
  980000    918.03428    315.17963   -27829.699        15625    137.50902 
  990000     1224.236    290.26628   -27813.696        15625    2404.8834 
 1000000    1524.7367    299.33041   -27831.639        15625   -235.65047 
Loop time of 1524.74 on 1 procs for 50000 steps with 258 atoms

Performance: 0.708 ns/day, 33.883 hours/ns, 32.793 timesteps/s
97.2% CPU use with 1 MPI tasks x 1 OpenMP threads

MPI task timing breakdown:
Section |  min time  |  avg time  |  max time  |%varavg| %total
---------------------------------------------------------------
Pair    | 1368.7     | 1368.7     | 1368.7     |   0.0 | 89.76
Bond    | 0.012113   | 0.012113   | 0.012113   |   0.0 |  0.00
Neigh   | 2.9805     | 2.9805     | 2.9805     |   0.0 |  0.20
Comm    | 0.71799    | 0.71799    | 0.71799    |   0.0 |  0.05
Output  | 0.0020324  | 0.0020324  | 0.0020324  |   0.0 |  0.00
Modify  | 152.09     | 152.09     | 152.09     |   0.0 |  9.97
Other   |            | 0.2666     |            |       |  0.02

Nlocal:    258 ave 258 max 258 min
Histogram: 1 0 0 0 0 0 0 0 0 0
Nghost:    1478 ave 1478 max 1478 min
Histogram: 1 0 0 0 0 0 0 0 0 0
Neighs:    34748 ave 34748 max 34748 min
Histogram: 1 0 0 0 0 0 0 0 0 0

Total # of neighbors = 34748
Ave neighs/atom = 134.682
Ave special neighs/atom = 0
Neighbor list builds = 936
Dangerous builds = 0
run 50000
Per MPI rank memory allocation (min/avg/max) = 57.72 | 57.72 | 57.72 Mbytes
Step CPU Temp PotEng Volume Pzz 
 1000000            0    299.33041   -27831.639        15625   -235.64826 
 1010000    309.56615    305.15406   -27828.582        15625    809.39697 
 1020000     617.6601    310.26997   -27838.956        15625    3073.8927 
 1030000     923.8171    304.34724   -27828.459        15625    2468.1227 
 1040000    1226.0986    292.55686   -27812.267        15625   -2365.7928 
 1050000    1535.3863    310.35146   -27834.853        15625   -1516.0976 
Loop time of 1535.39 on 1 procs for 50000 steps with 258 atoms

Performance: 0.703 ns/day, 34.120 hours/ns, 32.565 timesteps/s
97.2% CPU use with 1 MPI tasks x 1 OpenMP threads

MPI task timing breakdown:
Section |  min time  |  avg time  |  max time  |%varavg| %total
---------------------------------------------------------------
Pair    | 1378.6     | 1378.6     | 1378.6     |   0.0 | 89.79
Bond    | 0.012143   | 0.012143   | 0.012143   |   0.0 |  0.00
Neigh   | 3.0229     | 3.0229     | 3.0229     |   0.0 |  0.20
Comm    | 0.73029    | 0.73029    | 0.73029    |   0.0 |  0.05
Output  | 0.0020261  | 0.0020261  | 0.0020261  |   0.0 |  0.00
Modify  | 152.8      | 152.8      | 152.8      |   0.0 |  9.95
Other   |            | 0.2683     |            |       |  0.02

Nlocal:    258 ave 258 max 258 min
Histogram: 1 0 0 0 0 0 0 0 0 0
Nghost:    1476 ave 1476 max 1476 min
Histogram: 1 0 0 0 0 0 0 0 0 0
Neighs:    35207 ave 35207 max 35207 min
Histogram: 1 0 0 0 0 0 0 0 0 0

Total # of neighbors = 35207
Ave neighs/atom = 136.461
Ave special neighs/atom = 0
Neighbor list builds = 964
Dangerous builds = 0
run 50000
Per MPI rank memory allocation (min/avg/max) = 57.73 | 57.73 | 57.73 Mbytes
Step CPU Temp PotEng Volume Pzz 
 1050000            0    310.35146   -27834.853        15625   -1516.0995 
 1060000    305.33796    301.65087   -27830.602        15625    1540.3425 
 1070000    614.81099    312.31129   -27836.875        15625    2674.4739 
 1080000     917.7082    296.33823   -27821.145        15625   -982.51944 
 1090000    1230.9794    294.87635   -27819.624        15625   -969.92253 
 1100000    1542.5188    295.53524   -27820.217        15625   -466.64546 
Loop time of 1542.52 on 1 procs for 50000 steps with 258 atoms

Performance: 0.700 ns/day, 34.278 hours/ns, 32.415 timesteps/s
97.3% CPU use with 1 MPI tasks x 1 OpenMP threads

MPI task timing breakdown:
Section |  min time  |  avg time  |  max time  |%varavg| %total
---------------------------------------------------------------
Pair    | 1383.9     | 1383.9     | 1383.9     |   0.0 | 89.71
Bond    | 0.012194   | 0.012194   | 0.012194   |   0.0 |  0.00
Neigh   | 2.8863     | 2.8863     | 2.8863     |   0.0 |  0.19
Comm    | 0.7228     | 0.7228     | 0.7228     |   0.0 |  0.05
Output  | 0.0020221  | 0.0020221  | 0.0020221  |   0.0 |  0.00
Modify  | 154.77     | 154.77     | 154.77     |   0.0 | 10.03
Other   |            | 0.2682     |            |       |  0.02

Nlocal:    258 ave 258 max 258 min
Histogram: 1 0 0 0 0 0 0 0 0 0
Nghost:    1454 ave 1454 max 1454 min
Histogram: 1 0 0 0 0 0 0 0 0 0
Neighs:    33881 ave 33881 max 33881 min
Histogram: 1 0 0 0 0 0 0 0 0 0

Total # of neighbors = 33881
Ave neighs/atom = 131.322
Ave special neighs/atom = 0
Neighbor list builds = 932
Dangerous builds = 0
run 50000
Per MPI rank memory allocation (min/avg/max) = 57.71 | 57.71 | 57.71 Mbytes
Step CPU Temp PotEng Volume Pzz 
 1100000            0    295.53524   -27820.217        15625   -466.64828 
 1110000    307.27624    294.49107   -27829.172        15625    319.68751 
 1120000    610.77274    298.38113   -27834.805        15625    1377.5719 
 1130000    915.18018    285.06434   -27820.957        15625    1223.8646 
 1140000    1216.0428    311.11645   -27838.393        15625    570.24158 
 1150000    1521.1184    301.54852   -27832.041        15625   -2234.9195 
Loop time of 1521.12 on 1 procs for 50000 steps with 258 atoms

Performance: 0.710 ns/day, 33.803 hours/ns, 32.871 timesteps/s
97.4% CPU use with 1 MPI tasks x 1 OpenMP threads

MPI task timing breakdown:
Section |  min time  |  avg time  |  max time  |%varavg| %total
---------------------------------------------------------------
Pair    | 1365.8     | 1365.8     | 1365.8     |   0.0 | 89.79
Bond    | 0.012283   | 0.012283   | 0.012283   |   0.0 |  0.00
Neigh   | 3.0513     | 3.0513     | 3.0513     |   0.0 |  0.20
Comm    | 0.73785    | 0.73785    | 0.73785    |   0.0 |  0.05
Output  | 0.0020616  | 0.0020616  | 0.0020616  |   0.0 |  0.00
Modify  | 151.22     | 151.22     | 151.22     |   0.0 |  9.94
Other   |            | 0.2687     |            |       |  0.02

Nlocal:    258 ave 258 max 258 min
Histogram: 1 0 0 0 0 0 0 0 0 0
Nghost:    1444 ave 1444 max 1444 min
Histogram: 1 0 0 0 0 0 0 0 0 0
Neighs:    36816 ave 36816 max 36816 min
Histogram: 1 0 0 0 0 0 0 0 0 0

Total # of neighbors = 36816
Ave neighs/atom = 142.698
Ave special neighs/atom = 0
Neighbor list builds = 959
Dangerous builds = 0
run 50000
Per MPI rank memory allocation (min/avg/max) = 57.75 | 57.75 | 57.75 Mbytes
Step CPU Temp PotEng Volume Pzz 
 1150000            0    301.54852   -27832.041        15625   -2234.9197 
 1160000    303.50119    309.44902   -27830.493        15625   -1279.4106 
 1170000    608.75127    299.92277   -27814.113        15625   -1174.4656 
 1180000    918.88659    298.08314    -27824.26        15625    3183.0149 
 1190000    1224.2438    308.10879   -27825.643        15625   -2774.3657 
 1200000    1526.9802    273.22952   -27800.471        15625    1360.5579 
Loop time of 1526.98 on 1 procs for 50000 steps with 258 atoms

Performance: 0.707 ns/day, 33.933 hours/ns, 32.744 timesteps/s
97.6% CPU use with 1 MPI tasks x 1 OpenMP threads

MPI task timing breakdown:
Section |  min time  |  avg time  |  max time  |%varavg| %total
---------------------------------------------------------------
Pair    | 1369       | 1369       | 1369       |   0.0 | 89.66
Bond    | 0.012456   | 0.012456   | 0.012456   |   0.0 |  0.00
Neigh   | 3.0139     | 3.0139     | 3.0139     |   0.0 |  0.20
Comm    | 0.71724    | 0.71724    | 0.71724    |   0.0 |  0.05
Output  | 0.0020655  | 0.0020655  | 0.0020655  |   0.0 |  0.00
Modify  | 153.93     | 153.93     | 153.93     |   0.0 | 10.08
Other   |            | 0.266      |            |       |  0.02

Nlocal:    258 ave 258 max 258 min
Histogram: 1 0 0 0 0 0 0 0 0 0
Nghost:    1450 ave 1450 max 1450 min
Histogram: 1 0 0 0 0 0 0 0 0 0
Neighs:    34390 ave 34390 max 34390 min
Histogram: 1 0 0 0 0 0 0 0 0 0

Total # of neighbors = 34390
Ave neighs/atom = 133.295
Ave special neighs/atom = 0
Neighbor list builds = 960
Dangerous builds = 0
run 50000
Per MPI rank memory allocation (min/avg/max) = 57.72 | 57.72 | 57.72 Mbytes
Step CPU Temp PotEng Volume Pzz 
 1200000            0    273.22952   -27800.471        15625    1360.5561 
 1210000    305.50625    316.17758   -27831.734        15625    765.73942 
 1220000    612.82582    306.02272   -27825.471        15625    3812.6246 
 1230000    917.35012    292.31013   -27820.955        15625   -2491.2256 
 1240000     1224.858    298.99594    -27813.74        15625   -4418.1872 
 1250000    1534.0208    298.86893   -27823.368        15625   -645.63594 
Loop time of 1534.02 on 1 procs for 50000 steps with 258 atoms

Performance: 0.704 ns/day, 34.089 hours/ns, 32.594 timesteps/s
97.6% CPU use with 1 MPI tasks x 1 OpenMP threads

MPI task timing breakdown:
Section |  min time  |  avg time  |  max time  |%varavg| %total
---------------------------------------------------------------
Pair    | 1375.6     | 1375.6     | 1375.6     |   0.0 | 89.67
Bond    | 0.012571   | 0.012571   | 0.012571   |   0.0 |  0.00
Neigh   | 3.0598     | 3.0598     | 3.0598     |   0.0 |  0.20
Comm    | 0.71762    | 0.71762    | 0.71762    |   0.0 |  0.05
Output  | 0.0020386  | 0.0020386  | 0.0020386  |   0.0 |  0.00
Modify  | 154.41     | 154.41     | 154.41     |   0.0 | 10.07
Other   |            | 0.2676     |            |       |  0.02

Nlocal:    258 ave 258 max 258 min
Histogram: 1 0 0 0 0 0 0 0 0 0
Nghost:    1490 ave 1490 max 1490 min
Histogram: 1 0 0 0 0 0 0 0 0 0
Neighs:    35233 ave 35233 max 35233 min
Histogram: 1 0 0 0 0 0 0 0 0 0

Total # of neighbors = 35233
Ave neighs/atom = 136.562
Ave special neighs/atom = 0
Neighbor list builds = 975
Dangerous builds = 0
run 50000
Per MPI rank memory allocation (min/avg/max) = 57.73 | 57.73 | 57.73 Mbytes
Step CPU Temp PotEng Volume Pzz 
 1250000            0    298.86893   -27823.368        15625   -645.63248 
 1260000    306.00214    303.56179   -27836.489        15625    2667.0208 
 1270000     609.7986    298.59422   -27824.074        15625   -1137.0282 
 1280000    916.93799     300.1501   -27825.895        15625   -974.81965 
 1290000    1222.8243    285.73706   -27816.501        15625   -4710.2229 
 1300000    1530.4599    302.30287   -27831.274        15625   -3124.7158 
Loop time of 1530.46 on 1 procs for 50000 steps with 258 atoms

Performance: 0.706 ns/day, 34.010 hours/ns, 32.670 timesteps/s
97.7% CPU use with 1 MPI tasks x 1 OpenMP threads

MPI task timing breakdown:
Section |  min time  |  avg time  |  max time  |%varavg| %total
---------------------------------------------------------------
Pair    | 1374.4     | 1374.4     | 1374.4     |   0.0 | 89.81
Bond    | 0.012591   | 0.012591   | 0.012591   |   0.0 |  0.00
Neigh   | 2.9923     | 2.9923     | 2.9923     |   0.0 |  0.20
Comm    | 0.72857    | 0.72857    | 0.72857    |   0.0 |  0.05
Output  | 0.0020353  | 0.0020353  | 0.0020353  |   0.0 |  0.00
Modify  | 152.01     | 152.01     | 152.01     |   0.0 |  9.93
Other   |            | 0.2675     |            |       |  0.02

Nlocal:    258 ave 258 max 258 min
Histogram: 1 0 0 0 0 0 0 0 0 0
Nghost:    1444 ave 1444 max 1444 min
Histogram: 1 0 0 0 0 0 0 0 0 0
Neighs:    35259 ave 35259 max 35259 min
Histogram: 1 0 0 0 0 0 0 0 0 0

Total # of neighbors = 35259
Ave neighs/atom = 136.663
Ave special neighs/atom = 0
Neighbor list builds = 946
Dangerous builds = 0
run 50000
Per MPI rank memory allocation (min/avg/max) = 57.73 | 57.73 | 57.73 Mbytes
Step CPU Temp PotEng Volume Pzz 
 1300000            0    302.30287   -27831.274        15625   -3124.7099 
 1310000     307.5635    304.03039   -27831.011        15625    -3643.334 
 1320000    614.22524    302.58739   -27824.004        15625    1643.9971 
 1330000    918.53704    300.43852   -27839.016        15625    2397.7279 
 1340000     1224.465    290.18503   -27819.741        15625    666.56728 
 1350000    1530.0591    292.37712   -27825.164        15625    3416.5002 
Loop time of 1530.06 on 1 procs for 50000 steps with 258 atoms

Performance: 0.706 ns/day, 34.001 hours/ns, 32.678 timesteps/s
97.6% CPU use with 1 MPI tasks x 1 OpenMP threads

MPI task timing breakdown:
Section |  min time  |  avg time  |  max time  |%varavg| %total
---------------------------------------------------------------
Pair    | 1372.4     | 1372.4     | 1372.4     |   0.0 | 89.70
Bond    | 0.012741   | 0.012741   | 0.012741   |   0.0 |  0.00
Neigh   | 2.9883     | 2.9883     | 2.9883     |   0.0 |  0.20
Comm    | 0.72141    | 0.72141    | 0.72141    |   0.0 |  0.05
Output  | 0.002039   | 0.002039   | 0.002039   |   0.0 |  0.00
Modify  | 153.66     | 153.66     | 153.66     |   0.0 | 10.04
Other   |            | 0.2665     |            |       |  0.02

Nlocal:    258 ave 258 max 258 min
Histogram: 1 0 0 0 0 0 0 0 0 0
Nghost:    1424 ave 1424 max 1424 min
Histogram: 1 0 0 0 0 0 0 0 0 0
Neighs:    34224 ave 34224 max 34224 min
Histogram: 1 0 0 0 0 0 0 0 0 0

Total # of neighbors = 34224
Ave neighs/atom = 132.651
Ave special neighs/atom = 0
Neighbor list builds = 967
Dangerous builds = 0
run 50000
Per MPI rank memory allocation (min/avg/max) = 57.71 | 57.71 | 57.71 Mbytes
Step CPU Temp PotEng Volume Pzz 
 1350000            0    292.37712   -27825.164        15625    3416.5033 
 1360000    304.31931    296.06872   -27824.442        15625   -1421.1442 
 1370000      611.642    299.39129   -27835.661        15625   -2581.7405 
 1380000    917.38658    300.91478    -27826.79        15625    2348.1238 
 1390000    1224.8841    298.38945   -27830.141        15625   -4029.1663 
 1400000    1531.2717    292.47606   -27814.788        15625    -1184.275 
Loop time of 1531.27 on 1 procs for 50000 steps with 258 atoms

Performance: 0.705 ns/day, 34.028 hours/ns, 32.653 timesteps/s
97.7% CPU use with 1 MPI tasks x 1 OpenMP threads

MPI task timing breakdown:
Section |  min time  |  avg time  |  max time  |%varavg| %total
---------------------------------------------------------------
Pair    | 1372.5     | 1372.5     | 1372.5     |   0.0 | 89.63
Bond    | 0.012427   | 0.012427   | 0.012427   |   0.0 |  0.00
Neigh   | 2.9473     | 2.9473     | 2.9473     |   0.0 |  0.19
Comm    | 0.71202    | 0.71202    | 0.71202    |   0.0 |  0.05
Output  | 0.0020551  | 0.0020551  | 0.0020551  |   0.0 |  0.00
Modify  | 154.81     | 154.81     | 154.81     |   0.0 | 10.11
Other   |            | 0.265      |            |       |  0.02

Nlocal:    258 ave 258 max 258 min
Histogram: 1 0 0 0 0 0 0 0 0 0
Nghost:    1438 ave 1438 max 1438 min
Histogram: 1 0 0 0 0 0 0 0 0 0
Neighs:    34160 ave 34160 max 34160 min
Histogram: 1 0 0 0 0 0 0 0 0 0

Total # of neighbors = 34160
Ave neighs/atom = 132.403
Ave special neighs/atom = 0
Neighbor list builds = 959
Dangerous builds = 0
run 50000
Per MPI rank memory allocation (min/avg/max) = 57.71 | 57.71 | 57.71 Mbytes
Step CPU Temp PotEng Volume Pzz 
 1400000            0    292.47606   -27814.788        15625   -1184.2736 
 1410000    306.61889    298.74977   -27829.434        15625   -2135.0608 
 1420000    615.09737    307.68866   -27836.506        15625    1274.4059 
 1430000    920.00403      300.119   -27829.846        15625    4207.4893 
 1440000    1222.2022    305.38643   -27840.781        15625   -393.38729 
 1450000    1528.7359    292.03035   -27802.874        15625    2157.2662 
Loop time of 1528.74 on 1 procs for 50000 steps with 258 atoms

Performance: 0.706 ns/day, 33.972 hours/ns, 32.707 timesteps/s
97.7% CPU use with 1 MPI tasks x 1 OpenMP threads

MPI task timing breakdown:
Section |  min time  |  avg time  |  max time  |%varavg| %total
---------------------------------------------------------------
Pair    | 1371.1     | 1371.1     | 1371.1     |   0.0 | 89.69
Bond    | 0.012421   | 0.012421   | 0.012421   |   0.0 |  0.00
Neigh   | 2.9762     | 2.9762     | 2.9762     |   0.0 |  0.19
Comm    | 0.71829    | 0.71829    | 0.71829    |   0.0 |  0.05
Output  | 0.0020015  | 0.0020015  | 0.0020015  |   0.0 |  0.00
Modify  | 153.65     | 153.65     | 153.65     |   0.0 | 10.05
Other   |            | 0.2646     |            |       |  0.02

Nlocal:    258 ave 258 max 258 min
Histogram: 1 0 0 0 0 0 0 0 0 0
Nghost:    1438 ave 1438 max 1438 min
Histogram: 1 0 0 0 0 0 0 0 0 0
Neighs:    34621 ave 34621 max 34621 min
Histogram: 1 0 0 0 0 0 0 0 0 0

Total # of neighbors = 34621
Ave neighs/atom = 134.19
Ave special neighs/atom = 0
Neighbor list builds = 954
Dangerous builds = 0
run 50000
Per MPI rank memory allocation (min/avg/max) = 57.72 | 57.72 | 57.72 Mbytes
Step CPU Temp PotEng Volume Pzz 
 1450000            0    292.03035   -27802.874        15625    2157.2683 
 1460000    302.66291    306.75351   -27840.225        15625    761.15318 
 1470000    612.23915    286.58058     -27811.8        15625    3481.7293 
 1480000    919.28396    298.88582   -27830.523        15625    910.87464 
 1490000     1218.732    303.15991   -27822.731        15625    -655.7827 
 1500000    1520.5415    292.39845    -27812.64        15625   -748.85267 
Loop time of 1520.54 on 1 procs for 50000 steps with 258 atoms

Performance: 0.710 ns/day, 33.790 hours/ns, 32.883 timesteps/s
97.6% CPU use with 1 MPI tasks x 1 OpenMP threads

MPI task timing breakdown:
Section |  min time  |  avg time  |  max time  |%varavg| %total
---------------------------------------------------------------
Pair    | 1365.4     | 1365.4     | 1365.4     |   0.0 | 89.80
Bond    | 0.012485   | 0.012485   | 0.012485   |   0.0 |  0.00
Neigh   | 2.8832     | 2.8832     | 2.8832     |   0.0 |  0.19
Comm    | 0.72162    | 0.72162    | 0.72162    |   0.0 |  0.05
Output  | 0.0020587  | 0.0020587  | 0.0020587  |   0.0 |  0.00
Modify  | 151.24     | 151.24     | 151.24     |   0.0 |  9.95
Other   |            | 0.265      |            |       |  0.02

Nlocal:    258 ave 258 max 258 min
Histogram: 1 0 0 0 0 0 0 0 0 0
Nghost:    1400 ave 1400 max 1400 min
Histogram: 1 0 0 0 0 0 0 0 0 0
Neighs:    34158 ave 34158 max 34158 min
Histogram: 1 0 0 0 0 0 0 0 0 0

Total # of neighbors = 34158
Ave neighs/atom = 132.395
Ave special neighs/atom = 0
Neighbor list builds = 916
Dangerous builds = 0
run 50000
Per MPI rank memory allocation (min/avg/max) = 57.71 | 57.71 | 57.71 Mbytes
Step CPU Temp PotEng Volume Pzz 
 1500000            0    292.39845    -27812.64        15625   -748.84762 
 1510000    305.31168     308.6517   -27839.417        15625    570.39195 
 1520000    600.94968    301.95622   -27820.058        15625   -2417.5055 
 1530000     901.0783    311.02879   -27829.527        15625    80.210376 
 1540000    1207.0696    310.24392   -27833.782        15625   -1345.8874 
 1550000    1510.7791    293.66222   -27809.087        15625   -856.57957 
Loop time of 1510.78 on 1 procs for 50000 steps with 258 atoms

Performance: 0.715 ns/day, 33.573 hours/ns, 33.096 timesteps/s
97.6% CPU use with 1 MPI tasks x 1 OpenMP threads

MPI task timing breakdown:
Section |  min time  |  avg time  |  max time  |%varavg| %total
---------------------------------------------------------------
Pair    | 1356.2     | 1356.2     | 1356.2     |   0.0 | 89.77
Bond    | 0.012387   | 0.012387   | 0.012387   |   0.0 |  0.00
Neigh   | 3.095      | 3.095      | 3.095      |   0.0 |  0.20
Comm    | 0.72492    | 0.72492    | 0.72492    |   0.0 |  0.05
Output  | 0.0021354  | 0.0021354  | 0.0021354  |   0.0 |  0.00
Modify  | 150.5      | 150.5      | 150.5      |   0.0 |  9.96
Other   |            | 0.2681     |            |       |  0.02

Nlocal:    258 ave 258 max 258 min
Histogram: 1 0 0 0 0 0 0 0 0 0
Nghost:    1438 ave 1438 max 1438 min
Histogram: 1 0 0 0 0 0 0 0 0 0
Neighs:    33840 ave 33840 max 33840 min
Histogram: 1 0 0 0 0 0 0 0 0 0

Total # of neighbors = 33840
Ave neighs/atom = 131.163
Ave special neighs/atom = 0
Neighbor list builds = 958
Dangerous builds = 0
run 50000
Per MPI rank memory allocation (min/avg/max) = 57.71 | 57.71 | 57.71 Mbytes
Step CPU Temp PotEng Volume Pzz 
 1550000            0    293.66222   -27809.087        15625   -856.58221 
 1560000    302.70677    313.06727   -27833.427        15625   -7.1808249 
 1570000    609.09109    312.88345   -27832.666        15625   -889.46594 
 1580000    917.13112    302.14728   -27830.727        15625    1998.0069 
 1590000    1221.7502    293.76087   -27820.269        15625    2076.0745 
 1600000    1516.3021    305.68445   -27817.713        15625   -77.288288 
Loop time of 1516.3 on 1 procs for 50000 steps with 258 atoms

Performance: 0.712 ns/day, 33.696 hours/ns, 32.975 timesteps/s
97.6% CPU use with 1 MPI tasks x 1 OpenMP threads

MPI task timing breakdown:
Section |  min time  |  avg time  |  max time  |%varavg| %total
---------------------------------------------------------------
Pair    | 1362       | 1362       | 1362       |   0.0 | 89.83
Bond    | 0.01257    | 0.01257    | 0.01257    |   0.0 |  0.00
Neigh   | 3.0439     | 3.0439     | 3.0439     |   0.0 |  0.20
Comm    | 0.72799    | 0.72799    | 0.72799    |   0.0 |  0.05
Output  | 0.0020028  | 0.0020028  | 0.0020028  |   0.0 |  0.00
Modify  | 150.21     | 150.21     | 150.21     |   0.0 |  9.91
Other   |            | 0.2702     |            |       |  0.02

Nlocal:    258 ave 258 max 258 min
Histogram: 1 0 0 0 0 0 0 0 0 0
Nghost:    1418 ave 1418 max 1418 min
Histogram: 1 0 0 0 0 0 0 0 0 0
Neighs:    28463 ave 28463 max 28463 min
Histogram: 1 0 0 0 0 0 0 0 0 0

Total # of neighbors = 28463
Ave neighs/atom = 110.322
Ave special neighs/atom = 0
Neighbor list builds = 951
Dangerous builds = 0
run 50000
Per MPI rank memory allocation (min/avg/max) = 57.63 | 57.63 | 57.63 Mbytes
Step CPU Temp PotEng Volume Pzz 
 1600000            0    305.68445   -27817.713        15625   -77.286276 
 1610000    293.59022    291.09794   -27826.148        15625    2445.2518 
 1620000    599.98887     315.8752   -27839.908        15625    693.28075 
 1630000    902.18661    292.80409   -27830.356        15625   -419.07156 
 1640000    1208.1046    306.44141   -27831.281        15625   -4709.3077 
 1650000    1512.0878    288.93204   -27810.229        15625    77.276616 
Loop time of 1512.09 on 1 procs for 50000 steps with 258 atoms

Performance: 0.714 ns/day, 33.602 hours/ns, 33.067 timesteps/s
97.6% CPU use with 1 MPI tasks x 1 OpenMP threads

MPI task timing breakdown:
Section |  min time  |  avg time  |  max time  |%varavg| %total
---------------------------------------------------------------
Pair    | 1357.9     | 1357.9     | 1357.9     |   0.0 | 89.80
Bond    | 0.012719   | 0.012719   | 0.012719   |   0.0 |  0.00
Neigh   | 3.0096     | 3.0096     | 3.0096     |   0.0 |  0.20
Comm    | 0.72743    | 0.72743    | 0.72743    |   0.0 |  0.05
Output  | 0.0020334  | 0.0020334  | 0.0020334  |   0.0 |  0.00
Modify  | 150.14     | 150.14     | 150.14     |   0.0 |  9.93
Other   |            | 0.2684     |            |       |  0.02

Nlocal:    258 ave 258 max 258 min
Histogram: 1 0 0 0 0 0 0 0 0 0
Nghost:    1458 ave 1458 max 1458 min
Histogram: 1 0 0 0 0 0 0 0 0 0
Neighs:    33538 ave 33538 max 33538 min
Histogram: 1 0 0 0 0 0 0 0 0 0

Total # of neighbors = 33538
Ave neighs/atom = 129.992
Ave special neighs/atom = 0
Neighbor list builds = 946
Dangerous builds = 0
run 50000
Per MPI rank memory allocation (min/avg/max) = 57.7 | 57.7 | 57.7 Mbytes
Step CPU Temp PotEng Volume Pzz 
 1650000            0    288.93204   -27810.229        15625     77.27327 
 1660000    300.31706    284.35146   -27814.418        15625   -1049.1216 
 1670000    606.02432     308.8229    -27835.22        15625     1851.858 
 1680000    905.68539    306.36455    -27833.18        15625    1433.3675 
 1690000    1209.5943    295.34093   -27822.962        15625   -1743.0671 
 1700000    1513.6494    287.02314   -27819.778        15625    1509.5587 
Loop time of 1513.65 on 1 procs for 50000 steps with 258 atoms

Performance: 0.714 ns/day, 33.637 hours/ns, 33.033 timesteps/s
97.6% CPU use with 1 MPI tasks x 1 OpenMP threads

MPI task timing breakdown:
Section |  min time  |  avg time  |  max time  |%varavg| %total
---------------------------------------------------------------
Pair    | 1359.5     | 1359.5     | 1359.5     |   0.0 | 89.82
Bond    | 0.012497   | 0.012497   | 0.012497   |   0.0 |  0.00
Neigh   | 3.1125     | 3.1125     | 3.1125     |   0.0 |  0.21
Comm    | 0.72634    | 0.72634    | 0.72634    |   0.0 |  0.05
Output  | 0.0020179  | 0.0020179  | 0.0020179  |   0.0 |  0.00
Modify  | 150.03     | 150.03     | 150.03     |   0.0 |  9.91
Other   |            | 0.2677     |            |       |  0.02

Nlocal:    258 ave 258 max 258 min
Histogram: 1 0 0 0 0 0 0 0 0 0
Nghost:    1460 ave 1460 max 1460 min
Histogram: 1 0 0 0 0 0 0 0 0 0
Neighs:    33425 ave 33425 max 33425 min
Histogram: 1 0 0 0 0 0 0 0 0 0

Total # of neighbors = 33425
Ave neighs/atom = 129.554
Ave special neighs/atom = 0
Neighbor list builds = 957
Dangerous builds = 0
run 50000
Per MPI rank memory allocation (min/avg/max) = 57.7 | 57.7 | 57.7 Mbytes
Step CPU Temp PotEng Volume Pzz 
 1700000            0    287.02314   -27819.778        15625    1509.5548 
 1710000    300.12244    286.41359   -27826.184        15625    1668.5432 
 1720000    607.99661    288.20507   -27821.118        15625   -1586.3556 
 1730000    914.66811    307.51804   -27826.737        15625   -1560.3505 
 1740000    1218.6751     302.9187   -27820.552        15625       235.53 
 1750000    1517.3875     305.5818   -27841.036        15625   -235.70771 
Loop time of 1517.39 on 1 procs for 50000 steps with 258 atoms

Performance: 0.712 ns/day, 33.720 hours/ns, 32.951 timesteps/s
97.6% CPU use with 1 MPI tasks x 1 OpenMP threads

MPI task timing breakdown:
Section |  min time  |  avg time  |  max time  |%varavg| %total
---------------------------------------------------------------
Pair    | 1363       | 1363       | 1363       |   0.0 | 89.83
Bond    | 0.012542   | 0.012542   | 0.012542   |   0.0 |  0.00
Neigh   | 3.0914     | 3.0914     | 3.0914     |   0.0 |  0.20
Comm    | 0.73457    | 0.73457    | 0.73457    |   0.0 |  0.05
Output  | 0.0020657  | 0.0020657  | 0.0020657  |   0.0 |  0.00
Modify  | 150.25     | 150.25     | 150.25     |   0.0 |  9.90
Other   |            | 0.2694     |            |       |  0.02

Nlocal:    258 ave 258 max 258 min
Histogram: 1 0 0 0 0 0 0 0 0 0
Nghost:    1416 ave 1416 max 1416 min
Histogram: 1 0 0 0 0 0 0 0 0 0
Neighs:    33361 ave 33361 max 33361 min
Histogram: 1 0 0 0 0 0 0 0 0 0

Total # of neighbors = 33361
Ave neighs/atom = 129.306
Ave special neighs/atom = 0
Neighbor list builds = 956
Dangerous builds = 0
run 50000
Per MPI rank memory allocation (min/avg/max) = 57.7 | 57.7 | 57.7 Mbytes
Step CPU Temp PotEng Volume Pzz 
 1750000            0     305.5818   -27841.036        15625    -235.7067 
 1760000    302.28596    300.35029   -27820.809        15625   -1329.3371 
 1770000     601.4881    310.08391   -27820.651        15625    177.29585 
 1780000    895.55259     311.2947   -27831.728        15625     1993.138 
 1790000    1195.6113    310.72863   -27839.569        15625    -709.4219 
 1800000    1489.5602    281.83377   -27824.517        15625    4330.3218 
Loop time of 1489.56 on 1 procs for 50000 steps with 258 atoms

Performance: 0.725 ns/day, 33.101 hours/ns, 33.567 timesteps/s
97.5% CPU use with 1 MPI tasks x 1 OpenMP threads

MPI task timing breakdown:
Section |  min time  |  avg time  |  max time  |%varavg| %total
---------------------------------------------------------------
Pair    | 1338.8     | 1338.8     | 1338.8     |   0.0 | 89.88
Bond    | 0.012177   | 0.012177   | 0.012177   |   0.0 |  0.00
Neigh   | 3.0279     | 3.0279     | 3.0279     |   0.0 |  0.20
Comm    | 0.73022    | 0.73022    | 0.73022    |   0.0 |  0.05
Output  | 0.0020602  | 0.0020602  | 0.0020602  |   0.0 |  0.00
Modify  | 146.76     | 146.76     | 146.76     |   0.0 |  9.85
Other   |            | 0.2676     |            |       |  0.02

Nlocal:    258 ave 258 max 258 min
Histogram: 1 0 0 0 0 0 0 0 0 0
Nghost:    1428 ave 1428 max 1428 min
Histogram: 1 0 0 0 0 0 0 0 0 0
Neighs:    33797 ave 33797 max 33797 min
Histogram: 1 0 0 0 0 0 0 0 0 0

Total # of neighbors = 33797
Ave neighs/atom = 130.996
Ave special neighs/atom = 0
Neighbor list builds = 958
Dangerous builds = 0
run 50000
Per MPI rank memory allocation (min/avg/max) = 57.71 | 57.71 | 57.71 Mbytes
Step CPU Temp PotEng Volume Pzz 
 1800000            0    281.83377   -27824.517        15625    4330.3202 
 1810000    298.89737    299.70119   -27812.249        15625   -2387.5615 
 1820000    595.39549    282.99973   -27806.755        15625   -1292.2768 
 1830000    894.26202    319.46632    -27834.77        15625    728.63542 
 1840000    1194.1074    292.57875   -27829.451        15625    1928.2155 
 1850000    1498.2285    304.85457   -27830.389        15625   -1558.5281 
Loop time of 1498.23 on 1 procs for 50000 steps with 258 atoms

Performance: 0.721 ns/day, 33.294 hours/ns, 33.373 timesteps/s
97.5% CPU use with 1 MPI tasks x 1 OpenMP threads

MPI task timing breakdown:
Section |  min time  |  avg time  |  max time  |%varavg| %total
---------------------------------------------------------------
Pair    | 1345.7     | 1345.7     | 1345.7     |   0.0 | 89.82
Bond    | 0.0122     | 0.0122     | 0.0122     |   0.0 |  0.00
Neigh   | 3.1483     | 3.1483     | 3.1483     |   0.0 |  0.21
Comm    | 0.72723    | 0.72723    | 0.72723    |   0.0 |  0.05
Output  | 0.0020302  | 0.0020302  | 0.0020302  |   0.0 |  0.00
Modify  | 148.37     | 148.37     | 148.37     |   0.0 |  9.90
Other   |            | 0.2688     |            |       |  0.02

Nlocal:    258 ave 258 max 258 min
Histogram: 1 0 0 0 0 0 0 0 0 0
Nghost:    1438 ave 1438 max 1438 min
Histogram: 1 0 0 0 0 0 0 0 0 0
Neighs:    33507 ave 33507 max 33507 min
Histogram: 1 0 0 0 0 0 0 0 0 0

Total # of neighbors = 33507
Ave neighs/atom = 129.872
Ave special neighs/atom = 0
Neighbor list builds = 1000
Dangerous builds = 0
run 50000
Per MPI rank memory allocation (min/avg/max) = 57.71 | 57.71 | 57.71 Mbytes
Step CPU Temp PotEng Volume Pzz 
 1850000            0    304.85457   -27830.389        15625   -1558.5264 
 1860000    301.69634    291.90503    -27825.13        15625    49.829026 
 1870000    604.08332    307.21516   -27837.008        15625    5414.3779 
 1880000    899.84705    309.51276   -27830.419        15625    -6775.989 
 1890000    1196.9854    287.33965   -27812.843        15625    -4018.766 
 1900000    1494.3682    300.83857   -27823.605        15625    2756.4454 
Loop time of 1494.37 on 1 procs for 50000 steps with 258 atoms

Performance: 0.723 ns/day, 33.208 hours/ns, 33.459 timesteps/s
97.2% CPU use with 1 MPI tasks x 1 OpenMP threads

MPI task timing breakdown:
Section |  min time  |  avg time  |  max time  |%varavg| %total
---------------------------------------------------------------
Pair    | 1343.5     | 1343.5     | 1343.5     |   0.0 | 89.91
Bond    | 0.012306   | 0.012306   | 0.012306   |   0.0 |  0.00
Neigh   | 2.9724     | 2.9724     | 2.9724     |   0.0 |  0.20
Comm    | 0.71891    | 0.71891    | 0.71891    |   0.0 |  0.05
Output  | 0.0020165  | 0.0020165  | 0.0020165  |   0.0 |  0.00
Modify  | 146.86     | 146.86     | 146.86     |   0.0 |  9.83
Other   |            | 0.2694     |            |       |  0.02

Nlocal:    258 ave 258 max 258 min
Histogram: 1 0 0 0 0 0 0 0 0 0
Nghost:    1476 ave 1476 max 1476 min
Histogram: 1 0 0 0 0 0 0 0 0 0
Neighs:    29987 ave 29987 max 29987 min
Histogram: 1 0 0 0 0 0 0 0 0 0

Total # of neighbors = 29987
Ave neighs/atom = 116.229
Ave special neighs/atom = 0
Neighbor list builds = 950
Dangerous builds = 0
run 50000
Per MPI rank memory allocation (min/avg/max) = 57.66 | 57.66 | 57.66 Mbytes
Step CPU Temp PotEng Volume Pzz 
 1900000            0    300.83857   -27823.605        15625    2756.4508 
 1910000    290.82902    302.43744   -27821.364        15625   -967.19115 
 1920000    579.95457     293.2037    -27822.15        15625   -1427.2418 
 1930000    874.59701    301.31456   -27826.284        15625    496.35079 
 1940000    1173.9147    298.80156    -27820.05        15625    -3699.353 
 1950000    1474.7021    295.07798   -27811.975        15625   -77.059349 
Loop time of 1474.7 on 1 procs for 50000 steps with 258 atoms

Performance: 0.732 ns/day, 32.771 hours/ns, 33.905 timesteps/s
97.1% CPU use with 1 MPI tasks x 1 OpenMP threads

MPI task timing breakdown:
Section |  min time  |  avg time  |  max time  |%varavg| %total
---------------------------------------------------------------
Pair    | 1326.8     | 1326.8     | 1326.8     |   0.0 | 89.97
Bond    | 0.012164   | 0.012164   | 0.012164   |   0.0 |  0.00
Neigh   | 2.9803     | 2.9803     | 2.9803     |   0.0 |  0.20
Comm    | 0.72204    | 0.72204    | 0.72204    |   0.0 |  0.05
Output  | 0.0020338  | 0.0020338  | 0.0020338  |   0.0 |  0.00
Modify  | 143.94     | 143.94     | 143.94     |   0.0 |  9.76
Other   |            | 0.2702     |            |       |  0.02

Nlocal:    258 ave 258 max 258 min
Histogram: 1 0 0 0 0 0 0 0 0 0
Nghost:    1512 ave 1512 max 1512 min
Histogram: 1 0 0 0 0 0 0 0 0 0
Neighs:    31744 ave 31744 max 31744 min
Histogram: 1 0 0 0 0 0 0 0 0 0

Total # of neighbors = 31744
Ave neighs/atom = 123.039
Ave special neighs/atom = 0
Neighbor list builds = 943
Dangerous builds = 0
run 50000
Per MPI rank memory allocation (min/avg/max) = 57.68 | 57.68 | 57.68 Mbytes
Step CPU Temp PotEng Volume Pzz 
 1950000            0    295.07798   -27811.975        15625    -77.05647 
 1960000     305.2395    305.04428   -27822.138        15625    1999.5228 
 1970000    604.70751     278.7463   -27812.666        15625   -3026.3139 
 1980000    910.20315    301.89092   -27828.938        15625   -449.11292 
 1990000    1215.2608    302.00682   -27824.381        15625    -4094.299 
 2000000    1519.0992    297.55604   -27834.032        15625   -711.71423 
Loop time of 1519.1 on 1 procs for 50000 steps with 258 atoms

Performance: 0.711 ns/day, 33.758 hours/ns, 32.914 timesteps/s
97.1% CPU use with 1 MPI tasks x 1 OpenMP threads

MPI task timing breakdown:
Section |  min time  |  avg time  |  max time  |%varavg| %total
---------------------------------------------------------------
Pair    | 1366.7     | 1366.7     | 1366.7     |   0.0 | 89.97
Bond    | 0.012169   | 0.012169   | 0.012169   |   0.0 |  0.00
Neigh   | 3.0905     | 3.0905     | 3.0905     |   0.0 |  0.20
Comm    | 0.72588    | 0.72588    | 0.72588    |   0.0 |  0.05
Output  | 0.0020454  | 0.0020454  | 0.0020454  |   0.0 |  0.00
Modify  | 148.29     | 148.29     | 148.29     |   0.0 |  9.76
Other   |            | 0.2698     |            |       |  0.02

Nlocal:    258 ave 258 max 258 min
Histogram: 1 0 0 0 0 0 0 0 0 0
Nghost:    1456 ave 1456 max 1456 min
Histogram: 1 0 0 0 0 0 0 0 0 0
Neighs:    33294 ave 33294 max 33294 min
Histogram: 1 0 0 0 0 0 0 0 0 0

Total # of neighbors = 33294
Ave neighs/atom = 129.047
Ave special neighs/atom = 0
Neighbor list builds = 952
Dangerous builds = 0
run 50000
Per MPI rank memory allocation (min/avg/max) = 57.7 | 57.7 | 57.7 Mbytes
Step CPU Temp PotEng Volume Pzz 
 2000000            0    297.55604   -27834.032        15625   -711.71872 
 2010000    304.13285    304.05188   -27825.895        15625    -5205.607 
 2020000    611.00779     320.0583   -27840.392        15625    1303.1758 
 2030000    916.70616    301.81437   -27834.642        15625   -576.20612 
 2040000    1223.9153    307.33344   -27831.995        15625    1540.1225 
 2050000    1530.8951    299.60908    -27834.51        15625   -159.08205 
Loop time of 1530.9 on 1 procs for 50000 steps with 258 atoms

Performance: 0.705 ns/day, 34.020 hours/ns, 32.661 timesteps/s
97.1% CPU use with 1 MPI tasks x 1 OpenMP threads

MPI task timing breakdown:
Section |  min time  |  avg time  |  max time  |%varavg| %total
---------------------------------------------------------------
Pair    | 1377.3     | 1377.3     | 1377.3     |   0.0 | 89.97
Bond    | 0.012053   | 0.012053   | 0.012053   |   0.0 |  0.00
Neigh   | 3.0676     | 3.0676     | 3.0676     |   0.0 |  0.20
Comm    | 0.72456    | 0.72456    | 0.72456    |   0.0 |  0.05
Output  | 0.002065   | 0.002065   | 0.002065   |   0.0 |  0.00
Modify  | 149.53     | 149.53     | 149.53     |   0.0 |  9.77
Other   |            | 0.2721     |            |       |  0.02

Nlocal:    258 ave 258 max 258 min
Histogram: 1 0 0 0 0 0 0 0 0 0
Nghost:    1498 ave 1498 max 1498 min
Histogram: 1 0 0 0 0 0 0 0 0 0
Neighs:    33430 ave 33430 max 33430 min
Histogram: 1 0 0 0 0 0 0 0 0 0

Total # of neighbors = 33430
Ave neighs/atom = 129.574
Ave special neighs/atom = 0
Neighbor list builds = 949
Dangerous builds = 0
run 50000
Per MPI rank memory allocation (min/avg/max) = 57.7 | 57.7 | 57.7 Mbytes
Step CPU Temp PotEng Volume Pzz 
 2050000            0    299.60908    -27834.51        15625   -159.08552 
 2060000    307.55868    309.72036   -27852.252        15625     -2341.45 
 2070000    611.66017    293.85493   -27819.834        15625   -931.99047 
 2080000    919.86958    307.55121   -27840.583        15625    5028.3089 
 2090000    1224.5524    302.27426   -27835.379        15625    2270.0071 
 2100000    1528.4941     307.3061   -27835.983        15625    5472.1568 
Loop time of 1528.49 on 1 procs for 50000 steps with 258 atoms

Performance: 0.707 ns/day, 33.967 hours/ns, 32.712 timesteps/s
97.1% CPU use with 1 MPI tasks x 1 OpenMP threads

MPI task timing breakdown:
Section |  min time  |  avg time  |  max time  |%varavg| %total
---------------------------------------------------------------
Pair    | 1375.2     | 1375.2     | 1375.2     |   0.0 | 89.97
Bond    | 0.011893   | 0.011893   | 0.011893   |   0.0 |  0.00
Neigh   | 3.0945     | 3.0945     | 3.0945     |   0.0 |  0.20
Comm    | 0.72554    | 0.72554    | 0.72554    |   0.0 |  0.05
Output  | 0.0020324  | 0.0020324  | 0.0020324  |   0.0 |  0.00
Modify  | 149.15     | 149.15     | 149.15     |   0.0 |  9.76
Other   |            | 0.2709     |            |       |  0.02

Nlocal:    258 ave 258 max 258 min
Histogram: 1 0 0 0 0 0 0 0 0 0
Nghost:    1518 ave 1518 max 1518 min
Histogram: 1 0 0 0 0 0 0 0 0 0
Neighs:    32843 ave 32843 max 32843 min
Histogram: 1 0 0 0 0 0 0 0 0 0

Total # of neighbors = 32843
Ave neighs/atom = 127.298
Ave special neighs/atom = 0
Neighbor list builds = 959
Dangerous builds = 0
run 50000
Per MPI rank memory allocation (min/avg/max) = 57.7 | 57.7 | 57.7 Mbytes
Step CPU Temp PotEng Volume Pzz 
 2100000            0     307.3061   -27835.983        15625    5472.1584 
 2110000    308.94195    313.27439   -27843.724        15625   -1824.7501 
 2120000    612.94644    295.78253   -27832.235        15625   -2847.0146 
 2130000    920.51069    294.34942   -27815.098        15625   -389.86678 
 2140000    1226.5403    297.52534    -27818.13        15625   -2529.4791 
 2150000    1531.5763    305.13179   -27841.822        15625   -1516.5929 
Loop time of 1531.58 on 1 procs for 50000 steps with 258 atoms

Performance: 0.705 ns/day, 34.035 hours/ns, 32.646 timesteps/s
97.0% CPU use with 1 MPI tasks x 1 OpenMP threads

MPI task timing breakdown:
Section |  min time  |  avg time  |  max time  |%varavg| %total
---------------------------------------------------------------
Pair    | 1378.5     | 1378.5     | 1378.5     |   0.0 | 90.00
Bond    | 0.011962   | 0.011962   | 0.011962   |   0.0 |  0.00
Neigh   | 3.012      | 3.012      | 3.012      |   0.0 |  0.20
Comm    | 0.72725    | 0.72725    | 0.72725    |   0.0 |  0.05
Output  | 0.0020711  | 0.0020711  | 0.0020711  |   0.0 |  0.00
Modify  | 149.09     | 149.09     | 149.09     |   0.0 |  9.73
Other   |            | 0.2709     |            |       |  0.02

Nlocal:    258 ave 258 max 258 min
Histogram: 1 0 0 0 0 0 0 0 0 0
Nghost:    1508 ave 1508 max 1508 min
Histogram: 1 0 0 0 0 0 0 0 0 0
Neighs:    32416 ave 32416 max 32416 min
Histogram: 1 0 0 0 0 0 0 0 0 0

Total # of neighbors = 32416
Ave neighs/atom = 125.643
Ave special neighs/atom = 0
Neighbor list builds = 933
Dangerous builds = 0
run 50000
Per MPI rank memory allocation (min/avg/max) = 57.69 | 57.69 | 57.69 Mbytes
Step CPU Temp PotEng Volume Pzz 
 2150000            0    305.13179   -27841.822        15625   -1516.5906 
 2160000    307.69759    292.59774   -27829.976        15625   -2531.6753 
 2170000     611.7443    314.86328    -27856.09        15625   -1515.7616 
 2180000    918.61123    297.68481   -27841.011        15625   -4237.3698 
 2190000    1223.8252    302.42664   -27832.491        15625    898.11855 
 2200000    1533.9977    297.18138   -27835.223        15625    2421.9243 
Loop time of 1534 on 1 procs for 50000 steps with 258 atoms

Performance: 0.704 ns/day, 34.089 hours/ns, 32.595 timesteps/s
97.1% CPU use with 1 MPI tasks x 1 OpenMP threads

MPI task timing breakdown:
Section |  min time  |  avg time  |  max time  |%varavg| %total
---------------------------------------------------------------
Pair    | 1380.2     | 1380.2     | 1380.2     |   0.0 | 89.98
Bond    | 0.012019   | 0.012019   | 0.012019   |   0.0 |  0.00
Neigh   | 3.0709     | 3.0709     | 3.0709     |   0.0 |  0.20
Comm    | 0.72535    | 0.72535    | 0.72535    |   0.0 |  0.05
Output  | 0.0021521  | 0.0021521  | 0.0021521  |   0.0 |  0.00
Modify  | 149.67     | 149.67     | 149.67     |   0.0 |  9.76
Other   |            | 0.2709     |            |       |  0.02

[...]
 4430000    979.93475    300.70126   -28055.988        15625    1472.3621 
 4440000     1286.985    299.26278    -28055.23        15625    1121.9719 
 4450000    1624.5365    299.39548   -28055.112        15625   -171.83571 
Loop time of 1624.54 on 1 procs for 50000 steps with 258 atoms

Performance: 0.665 ns/day, 36.101 hours/ns, 30.778 timesteps/s
97.1% CPU use with 1 MPI tasks x 1 OpenMP threads

MPI task timing breakdown:
Section |  min time  |  avg time  |  max time  |%varavg| %total
---------------------------------------------------------------
Pair    | 1463       | 1463       | 1463       |   0.0 | 90.06
Bond    | 0.014487   | 0.014487   | 0.014487   |   0.0 |  0.00
Neigh   | 1.1505     | 1.1505     | 1.1505     |   0.0 |  0.07
Comm    | 0.71435    | 0.71435    | 0.71435    |   0.0 |  0.04
Output  | 0.002403   | 0.002403   | 0.002403   |   0.0 |  0.00
Modify  | 159.33     | 159.33     | 159.33     |   0.0 |  9.81
Other   |            | 0.2906     |            |       |  0.02

Nlocal:    258 ave 258 max 258 min
Histogram: 1 0 0 0 0 0 0 0 0 0
Nghost:    1646 ave 1646 max 1646 min
Histogram: 1 0 0 0 0 0 0 0 0 0
Neighs:    35410 ave 35410 max 35410 min
Histogram: 1 0 0 0 0 0 0 0 0 0

Total # of neighbors = 35410
Ave neighs/atom = 137.248
Ave special neighs/atom = 0
Neighbor list builds = 367
Dangerous builds = 0
run 50000
Per MPI rank memory allocation (min/avg/max) = 60.26 | 60.26 | 60.26 Mbytes
Step CPU Temp PotEng Volume Pzz 
 4450000            0    299.39548   -28055.112        15625   -171.83654 
 4460000    316.23134    299.25813   -28055.939        15625    69.671787 
 4470000    635.41926    299.81395   -28056.502        15625   -309.43198 
 4480000    958.20572    298.76669   -28055.674        15625    1192.6719 
 4490000    1291.0251    299.84625   -28056.169        15625   -1005.1892 
 4500000    1613.5911    300.49605   -28056.959        15625    38.894311 
Loop time of 1613.59 on 1 procs for 50000 steps with 258 atoms

Performance: 0.669 ns/day, 35.858 hours/ns, 30.987 timesteps/s
97.1% CPU use with 1 MPI tasks x 1 OpenMP threads

MPI task timing breakdown:
Section |  min time  |  avg time  |  max time  |%varavg| %total
---------------------------------------------------------------
Pair    | 1452.5     | 1452.5     | 1452.5     |   0.0 | 90.02
Bond    | 0.014589   | 0.014589   | 0.014589   |   0.0 |  0.00
Neigh   | 1.1143     | 1.1143     | 1.1143     |   0.0 |  0.07
Comm    | 0.70829    | 0.70829    | 0.70829    |   0.0 |  0.04
Output  | 0.002313   | 0.002313   | 0.002313   |   0.0 |  0.00
Modify  | 158.98     | 158.98     | 158.98     |   0.0 |  9.85
Other   |            | 0.2903     |            |       |  0.02

Nlocal:    258 ave 258 max 258 min
Histogram: 1 0 0 0 0 0 0 0 0 0
Nghost:    1248 ave 1248 max 1248 min
Histogram: 1 0 0 0 0 0 0 0 0 0
Neighs:    27790 ave 27790 max 27790 min
Histogram: 1 0 0 0 0 0 0 0 0 0

Total # of neighbors = 27790
Ave neighs/atom = 107.713
Ave special neighs/atom = 0
Neighbor list builds = 370
Dangerous builds = 0
run 50000
Per MPI rank memory allocation (min/avg/max) = 60.15 | 60.15 | 60.15 Mbytes
Step CPU Temp PotEng Volume Pzz 
 4500000            0    300.49605   -28056.959        15625    38.890884 
 4510000    333.35912    298.60648   -28056.115        15625   -383.11279 
 4520000    655.63405    300.95984   -28057.604        15625   -966.32055 
 4530000    964.67257    300.15116   -28057.024        15625     952.4046 
 4540000    1307.8234    300.80094   -28056.968        15625    22.449771 
 4550000    1607.2177     300.7504   -28057.207        15625    -110.6874 
Loop time of 1607.22 on 1 procs for 50000 steps with 258 atoms

Performance: 0.672 ns/day, 35.716 hours/ns, 31.110 timesteps/s
97.1% CPU use with 1 MPI tasks x 1 OpenMP threads

MPI task timing breakdown:
Section |  min time  |  avg time  |  max time  |%varavg| %total
---------------------------------------------------------------
Pair    | 1446.5     | 1446.5     | 1446.5     |   0.0 | 90.00
Bond    | 0.014738   | 0.014738   | 0.014738   |   0.0 |  0.00
Neigh   | 1.114      | 1.114      | 1.114      |   0.0 |  0.07
Comm    | 0.70364    | 0.70364    | 0.70364    |   0.0 |  0.04
Output  | 0.0022595  | 0.0022595  | 0.0022595  |   0.0 |  0.00
Modify  | 158.56     | 158.56     | 158.56     |   0.0 |  9.87
Other   |            | 0.2913     |            |       |  0.02

Nlocal:    258 ave 258 max 258 min
Histogram: 1 0 0 0 0 0 0 0 0 0
Nghost:    1326 ave 1326 max 1326 min
Histogram: 1 0 0 0 0 0 0 0 0 0
Neighs:    26212 ave 26212 max 26212 min
Histogram: 1 0 0 0 0 0 0 0 0 0

Total # of neighbors = 26212
Ave neighs/atom = 101.597
Ave special neighs/atom = 0
Neighbor list builds = 366
Dangerous builds = 0
run 50000
Per MPI rank memory allocation (min/avg/max) = 60.13 | 60.13 | 60.13 Mbytes
Step CPU Temp PotEng Volume Pzz 
 4550000            0     300.7504   -28057.207        15625   -110.68785 
 4560000    341.48898    301.18714   -28057.838        15625    763.83985 
 4570000    669.84364     299.4984   -28056.794        15625     184.2976 
 4580000    983.93074    299.56019   -28057.169        15625   -521.42005 
 4590000    1314.7086    299.45622   -28056.635        15625    83.550589 
 4600000    1628.4206    300.03749   -28057.223        15625   -232.89279 
Loop time of 1628.42 on 1 procs for 50000 steps with 258 atoms

Performance: 0.663 ns/day, 36.187 hours/ns, 30.705 timesteps/s
97.1% CPU use with 1 MPI tasks x 1 OpenMP threads

MPI task timing breakdown:
Section |  min time  |  avg time  |  max time  |%varavg| %total
---------------------------------------------------------------
Pair    | 1467.3     | 1467.3     | 1467.3     |   0.0 | 90.11
Bond    | 0.014923   | 0.014923   | 0.014923   |   0.0 |  0.00
Neigh   | 1.1593     | 1.1593     | 1.1593     |   0.0 |  0.07
Comm    | 0.71544    | 0.71544    | 0.71544    |   0.0 |  0.04
Output  | 0.0022122  | 0.0022122  | 0.0022122  |   0.0 |  0.00
Modify  | 158.92     | 158.92     | 158.92     |   0.0 |  9.76
Other   |            | 0.2907     |            |       |  0.02

Nlocal:    258 ave 258 max 258 min
Histogram: 1 0 0 0 0 0 0 0 0 0
Nghost:    1524 ave 1524 max 1524 min
Histogram: 1 0 0 0 0 0 0 0 0 0
Neighs:    35491 ave 35491 max 35491 min
Histogram: 1 0 0 0 0 0 0 0 0 0

Total # of neighbors = 35491
Ave neighs/atom = 137.562
Ave special neighs/atom = 0
Neighbor list builds = 363
Dangerous builds = 0
run 50000
Per MPI rank memory allocation (min/avg/max) = 60.26 | 60.26 | 60.26 Mbytes
Step CPU Temp PotEng Volume Pzz 
 4600000            0    300.03749   -28057.223        15625    -232.8933 
 4610000    323.07401     300.4567   -28057.534        15625    1216.9931 
 4620000    644.42527     300.9155   -28058.079        15625    311.23871 
 4630000    977.99851    300.59545   -28057.833        15625   -685.30433 
 4640000    1291.8694    300.34234   -28057.803        15625    11.182179 
 4650000    1632.9065    300.42215   -28057.606        15625    410.70076 
Loop time of 1632.91 on 1 procs for 50000 steps with 258 atoms

Performance: 0.661 ns/day, 36.287 hours/ns, 30.620 timesteps/s
97.1% CPU use with 1 MPI tasks x 1 OpenMP threads

MPI task timing breakdown:
Section |  min time  |  avg time  |  max time  |%varavg| %total
---------------------------------------------------------------
Pair    | 1471.6     | 1471.6     | 1471.6     |   0.0 | 90.12
Bond    | 0.014678   | 0.014678   | 0.014678   |   0.0 |  0.00
Neigh   | 1.1579     | 1.1579     | 1.1579     |   0.0 |  0.07
Comm    | 0.7232     | 0.7232     | 0.7232     |   0.0 |  0.04
Output  | 0.0024237  | 0.0024237  | 0.0024237  |   0.0 |  0.00
Modify  | 159.07     | 159.07     | 159.07     |   0.0 |  9.74
Other   |            | 0.2916     |            |       |  0.02

Nlocal:    258 ave 258 max 258 min
Histogram: 1 0 0 0 0 0 0 0 0 0
Nghost:    1694 ave 1694 max 1694 min
Histogram: 1 0 0 0 0 0 0 0 0 0
Neighs:    35841 ave 35841 max 35841 min
Histogram: 1 0 0 0 0 0 0 0 0 0

Total # of neighbors = 35841
Ave neighs/atom = 138.919
Ave special neighs/atom = 0
Neighbor list builds = 367
Dangerous builds = 0
run 50000
Per MPI rank memory allocation (min/avg/max) = 60.27 | 60.27 | 60.27 Mbytes
Step CPU Temp PotEng Volume Pzz 
 4650000            0    300.42215   -28057.606        15625    410.70221 
 4660000    306.36677    300.09413   -28057.189        15625   -1128.4517 
 4670000    629.13529    300.91822   -28058.794        15625   -89.191516 
 4680000    964.56843    300.34428   -28058.019        15625   -183.53462 
 4690000    1266.4393    300.43375   -28058.168        15625   -200.13082 
 4700000    1615.8918    300.59716   -28058.484        15625    841.28972 
Loop time of 1615.89 on 1 procs for 50000 steps with 258 atoms

Performance: 0.668 ns/day, 35.909 hours/ns, 30.943 timesteps/s
97.1% CPU use with 1 MPI tasks x 1 OpenMP threads

MPI task timing breakdown:
Section |  min time  |  avg time  |  max time  |%varavg| %total
---------------------------------------------------------------
Pair    | 1455.4     | 1455.4     | 1455.4     |   0.0 | 90.07
Bond    | 0.014571   | 0.014571   | 0.014571   |   0.0 |  0.00
Neigh   | 1.1394     | 1.1394     | 1.1394     |   0.0 |  0.07
Comm    | 0.71649    | 0.71649    | 0.71649    |   0.0 |  0.04
Output  | 0.0024594  | 0.0024594  | 0.0024594  |   0.0 |  0.00
Modify  | 158.32     | 158.32     | 158.32     |   0.0 |  9.80
Other   |            | 0.2869     |            |       |  0.02

Nlocal:    258 ave 258 max 258 min
Histogram: 1 0 0 0 0 0 0 0 0 0
Nghost:    1362 ave 1362 max 1362 min
Histogram: 1 0 0 0 0 0 0 0 0 0
Neighs:    33284 ave 33284 max 33284 min
Histogram: 1 0 0 0 0 0 0 0 0 0

Total # of neighbors = 33284
Ave neighs/atom = 129.008
Ave special neighs/atom = 0
Neighbor list builds = 373
Dangerous builds = 0
run 50000
Per MPI rank memory allocation (min/avg/max) = 60.23 | 60.23 | 60.23 Mbytes
Step CPU Temp PotEng Volume Pzz 
 4700000            0    300.59716   -28058.484        15625    841.28787 
 4710000    309.96723    299.33235   -28056.622        15625    951.19896 
 4720000    633.94124    299.29644   -28057.214        15625     50.86602 
 4730000    956.91053    300.73683   -28057.811        15625    -186.1328 
 4740000    1275.5705    300.26194   -28058.185        15625    187.45234 
 4750000    1595.2811     300.4871   -28058.084        15625    376.87526 
Loop time of 1595.28 on 1 procs for 50000 steps with 258 atoms

Performance: 0.677 ns/day, 35.451 hours/ns, 31.342 timesteps/s
97.1% CPU use with 1 MPI tasks x 1 OpenMP threads

MPI task timing breakdown:
Section |  min time  |  avg time  |  max time  |%varavg| %total
---------------------------------------------------------------
Pair    | 1435       | 1435       | 1435       |   0.0 | 89.96
Bond    | 0.013952   | 0.013952   | 0.013952   |   0.0 |  0.00
Neigh   | 1.088      | 1.088      | 1.088      |   0.0 |  0.07
Comm    | 0.70046    | 0.70046    | 0.70046    |   0.0 |  0.04
Output  | 0.0021796  | 0.0021796  | 0.0021796  |   0.0 |  0.00
Modify  | 158.15     | 158.15     | 158.15     |   0.0 |  9.91
Other   |            | 0.2887     |            |       |  0.02

Nlocal:    258 ave 258 max 258 min
Histogram: 1 0 0 0 0 0 0 0 0 0
Nghost:    1344 ave 1344 max 1344 min
Histogram: 1 0 0 0 0 0 0 0 0 0
Neighs:    31783 ave 31783 max 31783 min
Histogram: 1 0 0 0 0 0 0 0 0 0

Total # of neighbors = 31783
Ave neighs/atom = 123.19
Ave special neighs/atom = 0
Neighbor list builds = 365
Dangerous builds = 0
run 50000
Per MPI rank memory allocation (min/avg/max) = 60.21 | 60.21 | 60.21 Mbytes
Step CPU Temp PotEng Volume Pzz 
 4750000            0     300.4871   -28058.084        15625    376.87478 
 4760000    332.77635    300.12982   -28057.981        15625    947.42699 
 4770000     657.4015    299.94421   -28057.673        15625    826.49754 
 4780000    973.09449    299.99703   -28057.403        15625    -419.4211 
 4790000    1311.2609    299.57134   -28057.542        15625   -253.91956 
 4800000    1609.3053    300.44643   -28058.595        15625    818.97914 
Loop time of 1609.31 on 1 procs for 50000 steps with 258 atoms

Performance: 0.671 ns/day, 35.762 hours/ns, 31.069 timesteps/s
97.1% CPU use with 1 MPI tasks x 1 OpenMP threads

MPI task timing breakdown:
Section |  min time  |  avg time  |  max time  |%varavg| %total
---------------------------------------------------------------
Pair    | 1449       | 1449       | 1449       |   0.0 | 90.04
Bond    | 0.01391    | 0.01391    | 0.01391    |   0.0 |  0.00
Neigh   | 1.0973     | 1.0973     | 1.0973     |   0.0 |  0.07
Comm    | 0.7103     | 0.7103     | 0.7103     |   0.0 |  0.04
Output  | 0.0021428  | 0.0021428  | 0.0021428  |   0.0 |  0.00
Modify  | 158.18     | 158.18     | 158.18     |   0.0 |  9.83
Other   |            | 0.2905     |            |       |  0.02

Nlocal:    258 ave 258 max 258 min
Histogram: 1 0 0 0 0 0 0 0 0 0
Nghost:    1518 ave 1518 max 1518 min
Histogram: 1 0 0 0 0 0 0 0 0 0
Neighs:    33988 ave 33988 max 33988 min
Histogram: 1 0 0 0 0 0 0 0 0 0

Total # of neighbors = 33988
Ave neighs/atom = 131.736
Ave special neighs/atom = 0
Neighbor list builds = 362
Dangerous builds = 0
run 50000
Per MPI rank memory allocation (min/avg/max) = 60.24 | 60.24 | 60.24 Mbytes
Step CPU Temp PotEng Volume Pzz 
 4800000            0    300.44643   -28058.595        15625     818.9775 
 4810000    337.85346    300.09005   -28058.395        15625   -579.12261 
 4820000    656.91464    299.67274   -28057.258        15625    393.17996 
 4830000    979.07382     300.6788   -28058.762        15625   -11.876457 
 4840000    1319.6012    299.58555   -28058.005        15625     450.1545 
 4850000    1627.6919    300.92333   -28058.962        15625   -606.01198 
Loop time of 1627.69 on 1 procs for 50000 steps with 258 atoms

Performance: 0.664 ns/day, 36.171 hours/ns, 30.718 timesteps/s
97.1% CPU use with 1 MPI tasks x 1 OpenMP threads

MPI task timing breakdown:
Section |  min time  |  avg time  |  max time  |%varavg| %total
---------------------------------------------------------------
Pair    | 1466.9     | 1466.9     | 1466.9     |   0.0 | 90.12
Bond    | 0.014135   | 0.014135   | 0.014135   |   0.0 |  0.00
Neigh   | 1.1687     | 1.1687     | 1.1687     |   0.0 |  0.07
Comm    | 0.71675    | 0.71675    | 0.71675    |   0.0 |  0.04
Output  | 0.002329   | 0.002329   | 0.002329   |   0.0 |  0.00
Modify  | 158.61     | 158.61     | 158.61     |   0.0 |  9.74
Other   |            | 0.2904     |            |       |  0.02

Nlocal:    258 ave 258 max 258 min
Histogram: 1 0 0 0 0 0 0 0 0 0
Nghost:    1544 ave 1544 max 1544 min
Histogram: 1 0 0 0 0 0 0 0 0 0
Neighs:    31674 ave 31674 max 31674 min
Histogram: 1 0 0 0 0 0 0 0 0 0

Total # of neighbors = 31674
Ave neighs/atom = 122.767
Ave special neighs/atom = 0
Neighbor list builds = 367
Dangerous builds = 0
run 50000
Per MPI rank memory allocation (min/avg/max) = 60.21 | 60.21 | 60.21 Mbytes
Step CPU Temp PotEng Volume Pzz 
 4850000            0    300.92333   -28058.962        15625   -606.00628 
 4860000    329.02871    300.45229   -28059.095        15625    127.26337 
 4870000    647.12029    299.96379   -28058.224        15625    701.71946 
 4880000    966.25278     300.3934   -28058.511        15625   -1203.0313 
 4890000    1283.7694    300.53465   -28058.691        15625    832.36837 
 4900000    1624.9732    299.98121   -28058.145        15625    479.42487 
Loop time of 1624.97 on 1 procs for 50000 steps with 258 atoms

Performance: 0.665 ns/day, 36.111 hours/ns, 30.770 timesteps/s
97.1% CPU use with 1 MPI tasks x 1 OpenMP threads

MPI task timing breakdown:
Section |  min time  |  avg time  |  max time  |%varavg| %total
---------------------------------------------------------------
Pair    | 1464.5     | 1464.5     | 1464.5     |   0.0 | 90.12
Bond    | 0.014597   | 0.014597   | 0.014597   |   0.0 |  0.00
Neigh   | 1.0964     | 1.0964     | 1.0964     |   0.0 |  0.07
Comm    | 0.71508    | 0.71508    | 0.71508    |   0.0 |  0.04
Output  | 0.0023709  | 0.0023709  | 0.0023709  |   0.0 |  0.00
Modify  | 158.36     | 158.36     | 158.36     |   0.0 |  9.75
Other   |            | 0.2892     |            |       |  0.02

Nlocal:    258 ave 258 max 258 min
Histogram: 1 0 0 0 0 0 0 0 0 0
Nghost:    1091 ave 1091 max 1091 min
Histogram: 1 0 0 0 0 0 0 0 0 0
Neighs:    33087 ave 33087 max 33087 min
Histogram: 1 0 0 0 0 0 0 0 0 0

Total # of neighbors = 33087
Ave neighs/atom = 128.244
Ave special neighs/atom = 0
Neighbor list builds = 358
Dangerous builds = 0
run 50000
Per MPI rank memory allocation (min/avg/max) = 60.22 | 60.22 | 60.22 Mbytes
Step CPU Temp PotEng Volume Pzz 
 4900000            0    299.98121   -28058.145        15625    479.42817 
 4910000    309.87631    299.47487   -28058.246        15625    377.92587 
 4920000    639.26023    300.97238   -28059.458        15625    145.39087 
 4930000    960.49738    299.05744   -28057.487        15625    -106.2205 
 4940000    1264.6749    301.26523   -28059.712        15625   -598.21007 
 4950000    1605.8079    299.88443   -28058.644        15625    -27.67493 
Loop time of 1605.81 on 1 procs for 50000 steps with 258 atoms

Performance: 0.673 ns/day, 35.685 hours/ns, 31.137 timesteps/s
97.0% CPU use with 1 MPI tasks x 1 OpenMP threads

MPI task timing breakdown:
Section |  min time  |  avg time  |  max time  |%varavg| %total
---------------------------------------------------------------
Pair    | 1445.8     | 1445.8     | 1445.8     |   0.0 | 90.03
Bond    | 0.014955   | 0.014955   | 0.014955   |   0.0 |  0.00
Neigh   | 1.0754     | 1.0754     | 1.0754     |   0.0 |  0.07
Comm    | 0.70336    | 0.70336    | 0.70336    |   0.0 |  0.04
Output  | 0.0023375  | 0.0023375  | 0.0023375  |   0.0 |  0.00
Modify  | 157.96     | 157.96     | 157.96     |   0.0 |  9.84
Other   |            | 0.289      |            |       |  0.02

Nlocal:    258 ave 258 max 258 min
Histogram: 1 0 0 0 0 0 0 0 0 0
Nghost:    1618 ave 1618 max 1618 min
Histogram: 1 0 0 0 0 0 0 0 0 0
Neighs:    30804 ave 30804 max 30804 min
Histogram: 1 0 0 0 0 0 0 0 0 0

Total # of neighbors = 30804
Ave neighs/atom = 119.395
Ave special neighs/atom = 0
Neighbor list builds = 359
Dangerous builds = 0
run 50000
Per MPI rank memory allocation (min/avg/max) = 60.19 | 60.19 | 60.19 Mbytes
Step CPU Temp PotEng Volume Pzz 
 4950000            0    299.88443   -28058.644        15625   -27.675736 
 4960000    301.82047    299.54659   -28058.433        15625   -259.62849 
 4970000    639.22249    299.09273   -28058.082        15625   -669.00002 
 4980000    961.11094    300.00068   -28058.655        15625   -1339.1274 
 4990000    1274.4455    300.63767   -28059.361        15625   -328.40494 
 5000000    1594.7311    300.34631   -28059.119        15625   -670.34981 
Loop time of 1594.73 on 1 procs for 50000 steps with 258 atoms

Performance: 0.677 ns/day, 35.438 hours/ns, 31.353 timesteps/s
97.0% CPU use with 1 MPI tasks x 1 OpenMP threads

MPI task timing breakdown:
Section |  min time  |  avg time  |  max time  |%varavg| %total
---------------------------------------------------------------
Pair    | 1434.8     | 1434.8     | 1434.8     |   0.0 | 89.97
Bond    | 0.01533    | 0.01533    | 0.01533    |   0.0 |  0.00
Neigh   | 1.0776     | 1.0776     | 1.0776     |   0.0 |  0.07
Comm    | 0.70057    | 0.70057    | 0.70057    |   0.0 |  0.04
Output  | 0.0022538  | 0.0022538  | 0.0022538  |   0.0 |  0.00
Modify  | 157.85     | 157.85     | 157.85     |   0.0 |  9.90
Other   |            | 0.2863     |            |       |  0.02

Nlocal:    258 ave 258 max 258 min
Histogram: 1 0 0 0 0 0 0 0 0 0
Nghost:    1492 ave 1492 max 1492 min
Histogram: 1 0 0 0 0 0 0 0 0 0
Neighs:    40016 ave 40016 max 40016 min
Histogram: 1 0 0 0 0 0 0 0 0 0

Total # of neighbors = 40016
Ave neighs/atom = 155.101
Ave special neighs/atom = 0
Neighbor list builds = 358
Dangerous builds = 0

Please see the log.cite file for references relevant to this simulation

Total wall time: 42:18:42
