
 258 atoms

7 atom types

  0 25  xlo xhi
  0 25  ylo yhi
  0 25  zlo zhi
  
Masses

1 12.01
2 15.9994
3 14.01
4 1.01  
5 12.01 
6 15.9994
7 1.01

Atoms
 
1	1	1	0.00	11.9830	13.7840	18.7270
2	1	1	0.00	11.1800	12.6440	18.4280
3	1	1	0.00	9.8180	12.8280	18.0740
4	1	1	0.00	11.4710	15.0930	18.4910
5	1	1	0.00	10.0950	15.2530	18.1890
6	1	1	0.00	9.2950	14.1230	18.0000
7	1	3	0.00	11.7200	11.3930	18.4590
8	1	3	0.00	12.3010	16.1740	18.5220
9	1	1	0.00	8.8730	11.6740	17.7990
10	1	1	0.00	9.4430	16.6100	18.0070
11	1	1	0.00	9.6250	17.1180	16.5780
12	1	1	0.00	8.3630	11.0620	19.1000
13	1	1	0.00	13.3670	13.6060	19.3220
14	1	4	0.00	8.2430	14.2560	17.7540
15	1	7	0.00	11.1580	10.5240	18.3060
16	1	7	0.00	12.7460	11.2210	18.5780
17	1	4	0.00	9.3570	10.8990	17.1630
18	1	4	0.00	7.9930	12.0220	17.2090
19	1	7	0.00	13.3410	16.0860	18.6130
20	1	7	0.00	11.9700	17.1540	18.3610
21	1	4	0.00	9.8370	17.3490	18.7390
22	1	4	0.00	8.3490	16.5450	18.2180
23	1	4	0.00	13.4110	12.7190	19.9920
24	1	4	0.00	13.6370	14.4490	19.9940
25	1	4	0.00	14.1220	13.5090	18.5110
26	1	4	0.00	7.8110	11.8260	19.6930
27	1	4	0.00	9.2060	10.6670	19.7110
28	1	4	0.00	7.6680	10.2220	18.8690
29	1	4	0.00	9.1430	18.1170	16.4740
30	1	4	0.00	9.1490	16.4150	15.8580
31	1	4	0.00	10.7060	17.2170	16.3280
32	2	1	0.00	3.6040	15.8430	16.3850
33	2	1	0.00	3.9070	16.3760	15.0970
34	2	1	0.00	4.2490	17.7490	14.9790
35	2	1	0.00	3.8250	16.6330	17.5500
36	2	1	0.00	4.1140	18.0130	17.4040
37	2	1	0.00	4.3070	18.5460	16.1260
38	2	3	0.00	3.8910	15.5730	13.9960
39	2	3	0.00	3.7900	16.0620	18.7870
40	2	1	0.00	4.5270	18.4190	13.6470
41	2	1	0.00	4.2790	18.9500	18.5850
42	2	1	0.00	5.7050	18.8980	19.1310
43	2	1	0.00	3.2280	18.7690	12.9270
44	2	1	0.00	3.0220	14.4480	16.5120
45	2	4	0.00	4.5440	19.6030	16.0260
46	2	7	0.00	4.0480	15.9310	13.0250
47	2	7	0.00	3.7830	14.5340	14.0540
48	2	4	0.00	5.1730	17.7820	13.0020
49	2	4	0.00	5.1070	19.3590	13.7960
50	2	7	0.00	3.7090	15.0270	18.9300
51	2	7	0.00	3.9400	16.6020	19.6710
52	2	4	0.00	3.5440	18.7220	19.3880
53	2	4	0.00	4.0600	20.0000	18.2790
54	2	4	0.00	2.3600	14.2020	15.6520
55	2	4	0.00	2.3440	14.3640	17.3890
56	2	4	0.00	3.8400	13.6980	16.5900
57	2	4	0.00	2.6230	19.4700	13.5470
58	2	4	0.00	2.6270	17.8540	12.7240
59	2	4	0.00	3.4610	19.2630	11.9570
60	2	4	0.00	5.7960	19.5900	19.9990
61	2	4	0.00	6.4270	19.2140	18.3450
62	2	4	0.00	5.9620	17.8680	19.4680
63	3	1	0.00	10.6590	19.0330	10.4670
64	3	1	0.00	12.0520	19.0360	10.3510
65	3	1	0.00	12.7680	17.8250	10.2110
66	3	1	0.00	12.0360	16.6170	10.2350
67	3	1	0.00	10.6450	16.6200	10.3510
68	3	1	0.00	9.9500	17.8290	10.4520
69	3	2	0.00	8.5390	17.8310	10.5900
70	3	1	0.00	7.9600	17.9060	9.2620
71	3	1	0.00	6.4330	17.9030	9.3900
72	3	5	0.00	5.7600	18.3570	8.4280
73	3	6	0.00	5.9000	19.2780	9.5950
74	3	1	0.00	14.3040	17.7700	10.1020
75	3	1	0.00	14.7010	16.8580	8.9250
76	3	1	0.00	14.1030	17.0660	7.6620
77	3	1	0.00	14.4520	16.2780	6.5630
78	3	1	0.00	15.4260	15.2830	6.6910
79	3	1	0.00	16.0360	15.0690	7.9290
80	3	1	0.00	15.6900	15.8520	9.0340
81	3	2	0.00	15.7630	14.4690	5.5780
82	3	1	0.00	14.9450	19.1530	9.8350
83	3	1	0.00	14.8340	17.2660	11.4660
84	3	1	0.00	16.8510	15.1150	4.8670
85	3	1	0.00	17.2440	14.2490	3.6650
86	3	5	0.00	18.0310	13.2890	3.8620
87	3	6	0.00	18.6500	14.5000	3.2490
88	3	4	0.00	10.1250	19.9740	10.5690
89	3	4	0.00	12.5490	15.6610	10.1610
90	3	4	0.00	10.1020	15.6790	10.3610
91	3	4	0.00	12.5520	19.9960	10.3720
92	3	4	0.00	8.3150	18.8300	8.7400
93	3	4	0.00	8.2570	17.0120	8.6620
94	3	4	0.00	5.9500	17.1580	10.0630
95	3	4	0.00	4.7120	17.9900	8.3360
96	3	4	0.00	6.2850	18.7640	7.5310
97	3	4	0.00	13.3560	17.8410	7.5280
98	3	4	0.00	16.7880	14.2920	8.0330
99	3	4	0.00	16.2040	15.6550	9.9660
100	3	4	0.00	13.9700	16.4450	5.6040
101	3	4	0.00	14.8100	19.8360	10.7060
102	3	4	0.00	14.5030	19.6310	8.9310
103	3	4	0.00	16.0410	19.0470	9.6660
104	3	4	0.00	14.5180	16.2150	11.6560
105	3	4	0.00	14.4360	17.8980	12.2950
106	3	4	0.00	15.9460	17.3220	11.5150
107	3	4	0.00	17.7260	15.2820	5.5440
108	3	4	0.00	16.5190	16.1070	4.4760
109	3	4	0.00	16.5510	14.1930	2.7940
110	3	4	0.00	18.4340	13.1080	4.8860
111	3	4	0.00	17.9870	12.4500	3.1290
112	4	1	0.00	6.4530	3.2950	7.9030
113	4	1	0.00	5.2760	3.6660	8.5620
114	4	1	0.00	5.2110	3.6760	9.9740
115	4	1	0.00	6.3550	3.2630	10.6930
116	4	1	0.00	7.5280	2.8950	10.0300
117	4	1	0.00	7.5850	2.9240	8.6330
118	4	2	0.00	8.7690	2.5310	7.9590
119	4	1	0.00	9.5850	3.7150	7.7620
120	4	1	0.00	10.8740	3.3090	7.0400
121	4	5	0.00	11.5130	4.2030	6.4270
122	4	6	0.00	10.6930	3.3040	5.5620
123	4	1	0.00	3.9340	4.0540	10.7500
124	4	1	0.00	4.2880	5.0640	11.8580
125	4	1	0.00	5.0460	6.2100	11.5280
126	4	1	0.00	5.3690	7.1630	12.4960
127	4	1	0.00	4.9180	7.0100	13.8100
128	4	1	0.00	4.1590	5.8890	14.1550
129	4	1	0.00	3.8340	4.9310	13.1910
130	4	2	0.00	5.2650	7.9680	14.7980
131	4	1	0.00	2.8570	4.7200	9.8600
132	4	1	0.00	3.3350	2.7360	11.2980
133	4	1	0.00	4.2320	8.9890	14.8110
134	4	1	0.00	4.5770	10.0320	15.8790
135	4	5	0.00	4.2550	9.7860	17.0700
136	4	6	0.00	3.3610	10.7450	16.3570
137	4	4	0.00	6.4860	3.2970	6.8180
138	4	4	0.00	6.3400	3.2270	11.7790
139	4	4	0.00	8.3970	2.5860	10.6020
140	4	4	0.00	4.4270	3.9410	7.9490
141	4	4	0.00	9.0180	4.4770	7.1690
142	4	4	0.00	9.8670	4.1570	8.7480
143	4	4	0.00	11.4360	2.4160	7.4000
144	4	4	0.00	12.6010	4.0200	6.2710
145	4	4	0.00	11.1190	5.2470	6.4070
146	4	4	0.00	5.3960	6.3640	10.5110
147	4	4	0.00	3.8120	5.7640	15.1770
148	4	4	0.00	3.2300	4.0890	13.5070
149	4	4	0.00	5.9640	8.0290	12.2240
150	4	4	0.00	2.4550	4.0040	9.1060
151	4	4	0.00	3.2710	5.6080	9.3280
152	4	4	0.00	1.9980	5.0630	10.4820
153	4	4	0.00	4.0090	2.2730	12.0550
154	4	4	0.00	3.1930	2.0010	10.4710
155	4	4	0.00	2.3360	2.9070	11.7620
156	4	4	0.00	3.2270	8.5360	15.0020
157	4	4	0.00	4.1980	9.5120	13.8250
158	4	4	0.00	5.4280	10.7280	15.6960
159	4	4	0.00	3.7170	8.8390	17.3100
160	4	4	0.00	4.8430	10.3040	17.8630
161	5	1	0.00	12.3980	10.7320	14.2820
162	5	1	0.00	11.2890	10.3960	13.4990
163	5	1	0.00	10.4870	11.4030	12.9140
164	5	1	0.00	10.8180	12.7510	13.1790
165	5	1	0.00	11.9270	13.0800	13.9610
166	5	1	0.00	12.7300	12.0710	14.5030
167	5	2	0.00	13.8440	12.4050	15.3130
168	5	1	0.00	15.0060	12.5130	14.4520
169	5	1	0.00	16.2220	12.8800	15.3100
170	5	5	0.00	17.3660	12.6330	14.8480
171	5	6	0.00	16.8750	11.6690	15.8780
172	5	1	0.00	9.2420	11.0900	12.0620
173	5	1	0.00	9.2900	11.9150	10.7620
174	5	1	0.00	10.4660	11.8970	9.9790
175	5	1	0.00	10.5440	12.6110	8.7810
176	5	1	0.00	9.4410	13.3370	8.3220
177	5	1	0.00	8.2660	13.3600	9.0770
178	5	1	0.00	8.1820	12.6490	10.2770
179	5	2	0.00	9.5290	14.0800	7.1160
180	5	1	0.00	9.1480	9.6010	11.6470
181	5	1	0.00	8.0060	11.4080	12.9380
182	5	1	0.00	9.1160	13.2130	6.0270
183	5	1	0.00	9.1910	13.9960	4.7120
184	5	5	0.00	8.2180	14.7310	4.4070
185	5	6	0.00	8.2760	13.4260	3.6860
186	5	4	0.00	13.0060	9.9450	14.7200
187	5	4	0.00	10.2110	13.5560	12.7750
188	5	4	0.00	12.1660	14.1230	14.1480
189	5	4	0.00	11.0750	9.3440	13.3630
190	5	4	0.00	15.1760	11.5470	13.9120
191	5	4	0.00	14.8560	13.3280	13.7020
192	5	4	0.00	16.1250	13.6990	16.0600
193	5	4	0.00	18.2080	13.2440	15.2470
194	5	4	0.00	17.4640	12.1390	13.8520
195	5	4	0.00	11.3330	11.3290	10.3010
196	5	4	0.00	7.4090	13.9280	8.7260
197	5	4	0.00	7.2430	12.6870	10.8150
198	5	4	0.00	11.4620	12.5950	8.2020
199	5	4	0.00	8.9810	8.9440	12.5330
200	5	4	0.00	10.0750	9.2720	11.1240
201	5	4	0.00	8.2890	9.4460	10.9540
202	5	4	0.00	7.9410	12.4980	13.1590
203	5	4	0.00	8.0700	10.8650	13.9100
204	5	4	0.00	7.0630	11.0840	12.4410
205	5	4	0.00	8.0840	12.8190	6.2020
206	5	4	0.00	9.8120	12.3440	5.9450
207	5	4	0.00	10.1920	14.2440	4.2910
208	5	4	0.00	7.3300	14.7780	5.0810
209	5	4	0.00	8.4310	15.5780	3.7150
210	6	1	0.00	14.2910	5.5330	9.8150
211	6	1	0.00	14.0730	4.7040	10.9210
212	6	1	0.00	13.9120	5.2520	12.2140
213	6	1	0.00	14.0200	6.6540	12.3580
214	6	1	0.00	14.2360	7.4760	11.2500
215	6	1	0.00	14.3580	6.9200	9.9740
216	6	2	0.00	14.5980	7.7540	8.8520
217	6	1	0.00	13.3140	8.1250	8.2880
218	6	1	0.00	13.5520	9.0320	7.0770
219	6	5	0.00	12.6320	9.1340	6.2260
220	6	6	0.00	13.7620	8.2400	5.8340
221	6	1	0.00	13.6930	4.3840	13.4680
222	6	1	0.00	12.5140	4.9490	14.2820
223	6	1	0.00	11.2930	5.2220	13.6260
224	6	1	0.00	10.1910	5.7120	14.3300
225	6	1	0.00	10.2720	5.9160	15.7110
226	6	1	0.00	11.4680	5.6430	16.3800
227	6	1	0.00	12.5750	5.1540	15.6810
228	6	2	0.00	9.1590	6.4350	16.4210
229	6	1	0.00	13.3460	2.9130	13.1360
230	6	1	0.00	15.0270	4.3820	14.2530
231	6	1	0.00	8.3540	5.3130	16.8700
232	6	1	0.00	7.1490	5.8460	17.6520
233	6	5	0.00	7.3120	6.1290	18.8660
234	6	6	0.00	6.6250	4.8310	18.6050
235	6	4	0.00	14.4080	5.0950	8.8290
236	6	4	0.00	13.9320	7.1150	13.3380
237	6	4	0.00	14.3100	8.5520	11.3830
238	6	4	0.00	14.0340	3.6370	10.7430
239	6	4	0.00	12.7440	7.2070	7.9930
240	6	4	0.00	12.7160	8.6990	9.0370
241	6	4	0.00	14.2780	9.8740	7.1680
242	6	4	0.00	12.6250	10.0600	5.6060
243	6	4	0.00	11.6890	8.5520	6.3610
244	6	4	0.00	11.1940	5.0580	12.5570
245	6	4	0.00	11.5360	5.8060	17.4520
246	6	4	0.00	13.4720	4.9450	16.2500
247	6	4	0.00	9.2660	5.9280	13.8040
248	6	4	0.00	14.2080	2.3920	12.6550
249	6	4	0.00	12.4640	2.8520	12.4570
250	6	4	0.00	13.1000	2.3520	14.0680
251	6	4	0.00	15.2660	5.3990	14.6410
252	6	4	0.00	15.8660	4.0630	13.5910
253	6	4	0.00	14.9930	3.6690	15.1090
254	6	4	0.00	8.9620	4.6130	17.4970
255	6	4	0.00	7.9640	4.7450	15.9920
256	6	4	0.00	6.3330	6.3610	17.0950
257	6	4	0.00	8.3090	5.9680	19.3400
258	6	4	0.00	6.6060	6.8720	19.3040