516
Atoms. Timestep: 0
C 11.403 21.816 11.541
C 11.869 20.484 11.746
C 13.26 20.216 11.657
C 12.337 22.887 11.434
C 13.716 22.589 11.293
C 14.149 21.263 11.394
N 10.993 19.485 12.048
N 11.913 24.181 11.498
C 13.843 18.823 11.799
C 14.774 23.656 11.087
C 15.226 24.244 12.422
C 13.694 18.031 10.503
C 9.916 22.089 11.409
H 15.211 21.046 11.3
H 11.28 18.484 12.148
H 9.983 19.661 12.261
H 13.378 18.276 12.65
H 14.928 18.877 12.051
H 10.925 24.442 11.729
H 12.561 24.999 11.418
H 14.41 24.458 10.408
H 15.665 23.222 10.576
H 9.389 21.246 10.91
H 9.715 22.951 10.735
H 9.471 22.278 12.411
H 14.23 18.547 9.675
H 12.621 17.919 10.228
H 14.134 17.016 10.635
H 15.996 0.028 12.241
H 15.67 23.448 13.06
H 14.368 24.706 12.962
C 6.009 6.531 7.201
C 5.21 7.706 7.078
C 3.952 7.623 6.426
C 5.468 5.263 6.84
C 4.234 5.212 6.142
C 3.508 6.39 5.938
N 5.638 8.889 7.601
N 6.112 4.114 7.188
C 3.061 8.828 6.194
C 3.622 3.918 5.642
C 2.817 3.231 6.743
C 3.535 9.638 4.991
C 7.443 6.634 7.687
H 2.556 6.338 5.416
H 5.115 9.788 7.484
H 6.488 8.967 8.207
H 3.007 9.47 7.102
H 2.01 8.507 6.006
H 6.954 4.104 7.811
H 5.756 3.161 6.94
H 4.4 3.232 5.24
H 2.939 4.12 4.784
H 7.919 7.583 7.356
H 8.088 5.851 7.232
H 7.476 6.557 8.797
H 3.511 9.008 4.072
H 4.572 10.012 5.147
H 2.862 10.512 4.841
H 2.385 2.282 6.351
H 1.985 3.891 7.078
H 3.465 2.993 7.617
C 18.87 16.918 22.077
C 18.924 18.318 21.809
C 20.026 18.843 21.085
C 19.814 16.042 21.467
C 20.934 16.593 20.795
C 21.025 17.978 20.628
N 17.916 19.138 22.221
N 19.625 14.693 21.502
C 20.199 20.323 20.804
C 22.034 15.742 20.19
C 21.655 15.273 18.787
C 20.762 21.05 22.022
C 17.83 16.366 23.034
H 21.881 18.39 20.097
H 17.94 20.177 22.099
H 17.023 18.778 22.632
H 19.241 20.787 20.478
H 20.899 20.48 19.95
H 18.75 14.253 21.874
H 20.294 14.01 21.074
H 22.277 14.873 20.841
H 22.981 16.327 20.119
H 17.605 17.086 23.851
H 18.204 15.471 23.576
H 16.898 16.115 22.48
H 21.758 20.63 22.292
H 20.078 20.952 22.895
H 20.884 22.132 21.786
H 22.476 14.647 18.37
H 21.501 16.15 18.119
H 20.721 14.667 18.811
C 9.813 10.122 19.191
C 10.246 10.506 20.494
C 10.038 11.842 20.928
C 9.021 11.016 18.414
C 8.873 12.359 18.843
C 9.393 12.748 20.081
N 10.83 9.596 21.324
N 8.388 10.577 17.289
C 10.517 12.357 22.271
C 8.121 13.403 18.04
C 6.622 13.34 18.326
C 12.005 12.693 22.231
C 10.22 8.776 18.62
H 9.26 13.777 20.408
H 11.216 9.845 22.264
H 10.877 8.574 21.101
H 10.3 11.628 23.083
H 9.959 13.28 22.557
H 8.366 9.567 17.01
H 7.801 11.197 16.684
H 8.317 13.293 16.951
H 8.484 14.426 18.3
H 11.233 8.475 18.968
H 10.33 8.815 17.514
H 9.474 8 18.902
H 12.199 13.481 21.468
H 12.609 11.791 21.983
H 12.327 13.073 23.227
H 6.095 14.112 17.721
H 6.43 13.54 19.405
H 6.211 12.339 18.064
C 6.392 16.304 8.167
C 7.379 15.322 8.293
C 8.595 15.601 8.958
C 8.796 16.91 9.451
C 7.806 17.887 9.322
C 6.595 17.583 8.693
O 5.598 18.581 8.545
C 4.722 18.511 9.699
C 3.64 19.587 9.56
C 2.576 19.442 10.217
O 2.479 19.095 8.768
C 9.725 14.563 9.105
C 10.208 14.536 10.568
C 9.256 14.411 11.605
C 9.652 14.359 12.943
C 11.009 14.402 13.277
C 11.967 14.516 12.265
C 11.576 14.57 10.924
O 11.409 14.37 14.638
C 9.277 13.123 8.753
C 10.837 14.963 8.106
C 11.601 12.981 15.015
C 12.046 12.92 16.479
C 13.266 13.087 16.734
O 12.8 11.67 16.768
H 5.462 16.071 7.657
H 9.728 17.176 9.942
H 7.979 18.885 9.714
H 7.172 14.349 7.864
H 4.264 17.491 9.772
H 5.297 18.719 10.633
H 3.941 20.621 9.271
H 2 20.369 10.443
H 2.441 18.537 10.856
H 8.196 14.358 11.376
H 13.021 14.555 12.522
H 12.359 14.642 10.18
H 8.905 14.277 13.725
H 9.031 13.03 7.669
H 8.386 12.823 9.352
H 10.096 12.399 8.97
H 11.298 15.936 8.387
H 10.414 15.068 7.078
H 11.635 14.186 8.056
H 12.35 12.487 14.346
H 10.637 12.425 14.929
H 11.303 13.157 17.277
H 13.984 13.253 15.897
H 13.517 13.449 17.758
C 21.817 13.258 15.302
C 21.838 14.466 14.598
C 22.702 14.643 13.493
C 23.567 13.58 13.152
C 23.541 12.375 13.858
C 22.655 12.205 14.926
O 22.643 10.989 15.656
C 21.667 10.109 15.04
C 21.643 8.785 15.812
C 20.621 8.06 15.708
O 20.714 8.847 16.973
C 22.782 15.96 12.697
C 22.714 15.652 11.189
C 21.68 14.82 10.703
C 21.567 14.534 9.341
C 22.465 15.095 8.428
C 23.488 15.928 8.887
C 23.608 16.217 10.25
O 22.362 14.787 7.046
C 21.619 16.932 13.011
C 24.098 16.659 13.115
C 21.487 15.771 6.434
C 21.368 15.467 4.937
C 22.272 15.894 4.174
O 21.007 16.684 4.161
H 21.143 13.138 16.146
H 24.269 13.684 12.329
H 24.211 11.569 13.575
H 21.171 15.25 14.934
H 20.657 10.592 15.045
H 21.96 9.887 13.985
H 22.61 8.294 16.071
H 20.758 6.972 15.906
H 19.761 8.405 15.084
H 20.958 14.383 11.386
H 24.191 16.361 8.181
H 24.409 16.881 10.55
H 20.774 13.881 8.99
H 21.674 17.304 14.061
H 20.631 16.438 12.856
H 21.665 17.822 12.342
H 24.986 16.069 12.791
H 24.145 16.767 14.225
H 24.169 17.683 12.681
H 21.874 16.807 6.604
H 20.465 15.703 6.876
H 20.784 14.574 4.615
H 23.113 16.491 4.598
H 22.411 15.349 3.212
C 5.323 6.563 16.932
C 5.859 6.242 15.681
C 6.148 7.255 14.737
C 5.839 8.589 15.082
C 5.304 8.904 16.333
C 5.058 7.894 17.267
O 4.496 8.211 18.53
C 5.587 8.45 19.457
C 4.999 8.801 20.828
C 5.731 8.65 21.84
O 4.712 7.579 21.629
C 6.718 6.954 13.337
C 7.911 7.889 13.059
C 8.94 7.995 14.021
C 10.051 8.812 13.799
C 10.175 9.52 12.6
C 9.172 9.42 11.631
C 8.057 8.606 11.849
O 11.294 10.366 12.384
C 7.238 5.504 13.191
C 5.556 7.136 12.33
C 12.336 9.576 11.754
C 13.553 10.471 11.499
C 13.557 11.181 10.462
O 14.392 9.947 10.387
H 5.112 5.773 17.646
H 6.016 9.396 14.375
H 5.08 9.938 16.579
H 6.041 5.196 15.47
H 6.239 7.542 19.523
H 6.202 9.317 19.114
H 4.172 9.547 20.885
H 5.48 9.266 22.734
H 6.766 8.248 21.717
H 8.88 7.445 14.954
H 9.263 9.974 10.701
H 7.318 8.553 11.059
H 10.824 8.891 14.557
H 6.404 4.766 13.253
H 7.989 5.267 13.98
H 7.729 5.366 12.2
H 5.225 8.199 12.288
H 4.68 6.516 12.633
H 5.853 6.81 11.306
H 11.967 9.118 10.802
H 12.657 8.752 12.435
H 14.167 10.803 12.368
H 12.696 11.126 9.754
H 14.197 12.094 10.484
C 11.312 20.001 19.492
C 12.493 20.271 18.794
C 13.553 19.335 18.777
C 13.395 18.143 19.519
C 12.213 17.878 20.213
C 11.162 18.799 20.19
O 9.969 18.539 20.912
C 9.049 17.855 20.023
C 7.755 17.56 20.787
C 6.71 17.348 20.119
O 6.809 18.709 20.726
C 14.884 19.591 18.043
C 15.246 18.359 17.194
C 14.275 17.814 16.323
C 14.569 16.712 15.517
C 15.847 16.144 15.54
C 16.823 16.674 16.388
C 16.535 17.776 17.198
O 16.137 15.011 14.737
C 14.822 20.8 17.079
C 15.94 19.913 19.128
C 16.627 15.486 13.455
C 16.96 14.279 12.572
C 18.081 13.73 12.721
O 17.967 14.626 11.533
H 10.507 20.73 19.491
H 14.196 17.409 19.558
H 12.111 16.952 20.772
H 12.559 21.218 18.274
H 8.845 18.487 19.121
H 9.485 16.881 19.693
H 7.82 17.121 21.81
H 5.913 16.749 20.616
H 6.748 17.403 19.004
H 13.28 18.244 16.271
H 17.815 16.231 16.412
H 17.332 18.157 17.824
H 13.805 16.3 14.865
H 14.689 21.757 17.637
H 13.987 20.689 16.35
H 15.772 20.884 16.501
H 16.131 19.028 19.776
H 15.585 20.746 19.78
H 16.903 20.24 18.671
H 17.521 16.144 13.591
H 15.834 16.077 12.938
H 16.124 13.669 12.159
H 18.801 14.142 13.467
H 18.159 12.663 12.409
C 15.583 20.845 6.205
C 16.935 20.687 6.526
C 17.65 21.721 7.173
C 16.967 22.928 7.445
C 15.617 23.08 7.124
C 14.916 22.034 6.516
O 13.55 22.196 6.171
C 12.75 21.739 7.292
C 11.268 21.912 6.94
C 10.427 21.227 7.577
O 10.74 20.73 6.205
C 19.145 21.608 7.528
C 19.359 22.048 8.989
C 18.546 21.49 10.001
C 18.722 21.842 11.341
C 19.731 22.738 11.706
C 20.551 23.294 10.721
C 20.379 22.947 9.378
O 19.894 23.112 13.065
C 19.691 20.165 7.408
C 19.916 22.484 6.511
C 20.825 22.18 13.676
C 21.028 22.569 15.143
C 21.865 23.471 15.405
O 22.334 22.078 15.662
H 15.048 20.039 5.712
H 17.486 23.76 7.914
H 15.11 24.014 7.347
H 17.403 19.748 6.259
H 12.983 20.668 7.52
H 12.964 22.36 8.195
H 10.929 22.875 6.491
H 9.39 21.631 7.626
H 10.778 20.506 8.355
H 17.765 20.778 9.751
H 21.332 23.996 11.001
H 21.052 23.395 8.657
H 18.078 21.412 12.102
H 19.688 19.818 6.348
H 19.087 19.456 8.02
H 20.744 20.118 7.769
H 19.667 23.562 6.64
H 19.649 22.193 5.468
H 21.018 22.354 6.618
H 21.798 22.171 13.124
H 20.402 21.147 13.654
H 20.197 22.395 15.866
H 22.442 23.942 14.575
H 21.719 24.025 16.361
C 13.358 3.491 10.063
C 13.665 3.385 11.423
C 13.054 4.238 12.371
C 12.158 5.222 11.895
C 11.853 5.322 10.536
C 12.441 4.447 9.617
O 12.147 4.563 8.235
C 11.017 3.7 7.945
C 10.68 3.815 6.455
C 10.024 2.882 5.924
O 11.489 2.87 5.637
C 13.374 4.179 13.877
C 12.059 4.165 14.679
C 11.051 3.238 14.332
C 9.853 3.174 15.047
C 9.645 4.014 16.145
C 10.633 4.932 16.511
C 11.833 5.001 15.797
O 8.419 3.964 16.858
C 14.162 2.91 14.282
C 14.266 5.404 14.195
C 8.565 2.992 17.927
C 7.256 2.926 18.721
C 7.067 3.786 19.619
O 7.485 2.44 20.109
H 13.834 2.825 9.349
H 11.688 5.917 12.585
H 11.157 6.082 10.194
H 14.385 2.631 11.713
H 11.262 2.642 8.218
H 10.122 4.028 8.527
H 10.619 4.828 5.992
H 9.442 3.138 5.009
H 9.729 1.997 6.538
H 11.191 2.561 13.495
H 10.471 5.59 17.359
H 12.571 5.719 16.133
H 9.086 2.464 14.755
H 15.185 2.911 13.838
H 13.629 1.987 13.957
H 14.282 2.865 15.389
H 13.705 6.356 14.053
H 15.152 5.424 13.518
H 14.65 5.364 15.24
H 9.425 3.257 18.591
H 8.753 1.978 17.5
H 6.365 2.45 18.25
H 7.853 4.55 19.824
H 6.007 3.998 19.892
C 7.778 13.706 4.308
C 8.27 12.419 4.549
C 9.427 11.952 3.884
C 10.041 12.808 2.943
C 9.546 14.092 2.707
C 8.422 14.551 3.4
O 7.907 15.847 3.145
C 8.537 16.768 4.073
C 7.998 18.178 3.81
C 8.096 19.029 4.731
O 6.738 18.43 4.563
C 9.998 10.536 4.095
C 11.516 10.627 4.338
C 12.005 11.529 5.31
C 13.372 11.626 5.579
C 14.281 10.807 4.904
C 13.817 9.902 3.945
C 12.451 9.801 3.671
O 15.672 10.922 5.162
C 9.389 9.812 5.32
C 9.632 9.711 2.837
C 16.003 10.006 6.239
C 17.504 10.102 6.53
C 18.289 9.434 5.809
O 18.019 8.855 7.158
H 6.891 14.05 4.831
H 10.915 12.478 2.386
H 10.037 14.735 1.983
H 7.731 11.805 5.259
H 8.33 16.452 5.127
H 9.642 16.785 3.908
H 7.943 18.546 2.759
H 8.099 20.099 4.423
H 8.546 18.733 5.709
H 11.321 12.166 5.862
H 14.522 9.268 3.415
H 12.143 9.072 2.93
H 13.728 12.335 6.319
H 8.307 9.593 5.164
H 9.503 10.423 6.245
H 9.903 8.837 5.489
H 10.154 10.104 1.935
H 8.534 9.761 2.647
H 9.896 8.636 2.967
H 15.712 8.958 5.973
H 15.458 10.294 7.169
H 17.897 11.018 7.03
H 17.877 8.784 5.003
H 19.338 9.805 5.738
C 3.819 19.286 14.355
C 4.071 20.617 14.703
C 3.788 21.09 16.005
C 3.207 20.188 16.925
C 2.959 18.86 16.572
C 3.278 18.401 15.291
O 3.008 17.057 14.927
C 4.188 16.268 15.225
C 3.913 14.809 14.844
C 4.9 14.056 14.643
O 4.22 14.552 13.41
C 4.023 22.551 16.433
C 4.772 22.575 17.78
C 5.943 21.8 17.93
C 6.666 21.811 19.125
C 6.252 22.617 20.189
C 5.101 23.399 20.058
C 4.373 23.391 18.865
O 6.975 22.611 21.41
C 4.886 23.349 15.425
C 2.634 23.231 16.498
C 7.993 23.642 21.331
C 8.782 23.665 22.645
C 8.3 24.309 23.612
O 9.407 24.994 22.883
H 4.047 18.939 13.351
H 2.945 20.517 17.927
H 2.517 18.183 17.297
H 4.487 21.262 13.938
H 5.07 16.667 14.663
H 4.407 16.302 16.32
H 2.951 14.341 15.16
H 4.729 12.963 14.778
H 5.934 14.468 14.725
H 6.299 21.177 17.115
H 4.774 24.022 20.885
H 3.498 24.027 18.81
H 7.555 21.197 19.224
H 4.352 23.486 14.456
H 5.855 22.834 15.232
H 5.111 24.364 15.826
H 2.009 22.788 17.306
H 2.092 23.097 15.533
H 2.728 24.327 16.675
H 7.533 24.641 21.122
H 8.711 23.41 20.509
H 9.481 22.825 22.866
H 7.336 24.855 23.483
H 8.627 23.997 24.631
516
Atoms. Timestep: 50000
C 7.77883 21.1348 15.5062
C 8.91181 20.2793 15.239
C 9.99682 20.3168 16.1489
C 8.02156 22.2511 16.3634
C 9.19721 22.3907 17.1277
C 10.1799 21.3933 16.9883
N 8.75265 19.6572 14.0323
N 7.0817 23.2221 16.459
C 11.1409 19.2559 16.1357
C 9.30917 23.6522 18.0246
C 8.71083 23.2828 19.4276
C 10.5 17.9154 16.5518
C 6.48776 20.82 14.8185
H 11.1492 21.6031 17.5331
H 9.52035 18.8898 10.4391
H 9.07015 20.2538 11.9402
H 12.0124 19.5817 16.6671
H 11.5899 19.3099 15.1627
H 6.27169 23.2417 15.7425
H 6.97765 24.1572 16.9391
H 8.70326 24.425 17.5783
H 10.2779 24.1077 18.0956
H 6.05896 19.8437 15.14
H 6.54917 20.503 13.7516
H 5.768 21.612 14.8949
H 10.6317 17.8386 17.5951
H 10.7853 17.0233 16.1045
H 9.40194 17.9211 16.4654
H 7.84571 22.5812 19.3239
H 8.19893 24.1409 19.8722
H 9.4828 22.8697 20.1216
C 1.37949 12.0942 12.2893
C 24.9866 11.8089 12.6646
C 24.5345 11.6355 14.0168
C 2.31934 12.5443 13.1914
C 2.03491 11.8834 14.3411
C 0.66675 11.403 14.7091
N 24.1064 11.807 11.5861
N 3.44953 13.3003 12.7536
C 23.0951 11.4033 14.4187
C 3.13087 11.1344 15.1254
C 3.31849 9.74588 14.6045
C 23.0076 10.9232 15.8238
C 1.85656 11.39 10.9956
H 0.623315 11.0509 15.7209
H 23.1409 11.6024 11.5847
H 24.3408 11.8988 10.5867
H 22.4815 10.9506 13.7115
H 22.4878 12.3476 14.3566
H 5.61688 12.9917 13.9158
H 3.33525 13.7841 11.8238
H 2.88604 10.996 16.1845
H 4.0616 11.839 15.1217
H 2.04749 12.0216 10.1852
H 1.07544 10.718 10.6415
H 2.84397 10.8285 11.1459
H 21.9935 10.9433 16.175
H 23.6594 11.5679 16.4604
H 23.4246 9.97737 16.0253
H 2.41303 9.17032 14.3714
H 3.77267 9.04877 15.3133
H 3.77705 9.71339 13.6331
C 24.8364 18.2023 19.2652
C 0.656353 17.0391 19.2987
C 0.15642 15.9135 20.0326
C 23.5149 18.1957 19.8419
C 23.2095 17.1743 20.7426
C 23.9208 15.9817 20.6949
N 1.86174 16.8731 18.6318
N 22.5926 19.1513 19.522
C 1.02562 14.6659 20.2441
C 21.9177 17.224 21.5891
C 20.77 16.6635 20.7267
C 1.89888 14.9563 21.4773
C 0.48665 19.548 19.0202
H 23.5325 15.1818 21.298
H 2.67225 16.2409 18.9284
H 2.28984 17.6966 18.2085
H 1.75054 14.3946 19.409
H 0.515145 13.7375 20.3623
H 22.8003 19.984 18.8558
H 21.6346 19.325 19.8657
H 21.7433 18.2857 21.7899
H 21.9065 16.8376 22.6142
H 24.8376 20.3799 18.9903
H 1.11654 19.5971 18.1092
H 1.26719 19.8524 19.7608
H 2.63045 15.7555 21.3495
H 2.46161 14.0907 21.767
H 1.38841 15.276 22.3241
H 20.6302 16.9976 19.6928
H 19.7892 16.8319 21.1174
H 20.9212 15.6291 20.5612
C 8.31093 15.1241 18.7379
C 7.50201 15.5679 17.6164
C 7.85841 15.2571 16.3004
C 9.56986 14.5156 18.6116
C 9.38762 13.6805 17.4902
C 8.46914 14.0283 16.4325
N 6.16155 16.0592 17.7897
N 10.7585 14.9822 19.2407
C 7.47895 16.0093 15.0035
C 10.0632 12.2919 17.3944
C 8.98577 11.2441 17.6165
C 8.6855 15.7707 14.0326
C 7.63753 15.0698 20.1565
H 8.52295 13.3281 15.5866
H 5.84733 16.1351 18.7664
H 4.42219 14.711 19.6481
H 7.49253 17.1376 14.9823
H 6.50896 15.7646 14.6421
H 10.7105 15.8475 19.9793
H 11.0934 13.1779 20.6856
H 10.9539 12.1486 17.9899
H 10.5756 12.17 16.5078
H 6.75103 14.4346 20.0318
H 7.38037 15.9899 20.6187
H 8.2526 14.6531 20.9765
H 8.75074 14.7677 13.675
H 9.67606 16.0032 14.4264
H 8.61049 16.0936 13.0106
H 9.2523 10.2044 17.7883
H 8.05459 11.2379 17.0553
H 8.41139 11.5708 18.4507
C 9.54203 10.573 8.9839
C 10.2213 10.1569 10.125
C 10.6448 11.0328 11.1246
C 10.4355 12.39 10.8443
C 9.83192 12.7794 9.62486
C 9.50861 11.9039 8.6024
O 9.00252 12.2992 7.39499
C 7.58068 12.6804 7.3077
C 6.5458 11.6013 7.42975
C 5.08475 12.0557 7.30918
O 5.52761 11.3712 8.43673
C 11.3076 10.5856 12.4318
C 11.7351 11.932 13.138
C 10.9336 12.6858 13.9364
C 11.2812 13.8509 14.7276
C 12.5117 14.4593 14.7692
C 13.3115 13.6534 13.9449
C 12.9866 12.5221 13.0996
O 12.765 15.6133 15.4471
C 10.3442 9.86395 13.4028
C 12.354 9.59214 11.9165
C 12.9193 15.4067 16.9607
C 12.3961 14.1827 17.6414
C 12.0219 14.276 19.0134
O 11.6886 12.7198 19.9798
H 9.20511 9.74775 8.37617
H 10.7313 13.126 11.5833
H 9.69593 13.8471 9.38009
H 10.3166 9.10861 10.2956
H 7.37338 13.4905 8.05559
H 7.52291 13.2322 6.34274
H 6.87802 10.7775 6.84172
H 4.54377 11.7287 6.49121
H 4.7787 13.1036 7.57051
H 9.89477 12.3333 13.9957
H 14.3548 13.9944 13.9047
H 13.773 12.0655 12.4973
H 10.4987 14.3405 15.2708
H 10.7617 9.74557 14.3738
H 10.1388 8.85821 12.9512
H 9.40438 10.3598 13.5333
H 13.1734 9.42248 12.6356
H 12.788 9.95609 10.9769
H 11.8823 8.58104 11.8588
H 12.4593 16.2388 17.5132
H 14.0536 15.4138 17.158
H 12.2139 13.3224 17.0741
H 12.5747 12.7541 20.4581
H 12.6646 14.9818 19.5217
C 24.7822 17.5782 13.3847
C 24.0568 17.8883 12.2338
C 24.1342 17.1467 11.0791
C 24.8474 15.9188 11.1722
C 0.456841 15.555 12.3652
C 0.552622 16.4119 13.4985
O 1.25478 16.102 14.6192
C 0.878505 15.2711 15.8101
C 24.719 14.3957 15.6158
C 23.4083 14.7728 16.3163
O 24.1727 13.7639 16.8606
C 23.427 17.5181 9.76777
C 22.4367 16.3945 9.28137
C 22.0648 15.3587 10.1795
C 20.9631 14.5867 9.82323
C 20.3246 14.6783 8.58147
C 20.8555 15.5244 7.64262
C 21.9652 16.345 7.97436
O 19.1499 13.9449 8.37673
C 22.6393 18.8459 9.90285
C 24.4352 17.8289 8.64286
C 17.8363 14.5093 8.04817
C 17.2334 14.3637 6.6936
C 17.2109 15.552 5.74954
O 16.0293 15.216 6.3822
H 24.7762 18.2233 14.2304
H 24.7878 15.2753 10.2925
H 1.00196 14.6445 12.4344
H 23.4182 18.7366 12.2592
H 1.78029 14.769 16.1844
H 0.84278 15.8669 16.7127
H 24.6418 13.9695 14.5904
H 22.3883 14.3632 15.9892
H 23.3268 15.7615 16.7294
H 22.5167 15.2565 11.1177
H 20.3554 15.505 6.67036
H 22.4069 17.0601 7.29133
H 20.6215 13.8949 10.5841
H 23.3688 19.6271 9.94153
H 22.0017 18.9064 10.7662
H 21.9956 19.1072 9.06597
H 24.0319 18.5442 7.92246
H 24.7361 17.0127 8.04148
H 0.321977 18.3185 9.00682
H 17.7408 15.5406 8.34926
H 17.1861 14.0549 8.82055
H 17.1919 13.3406 6.26469
H 17.6825 16.5052 6.02258
H 17.3854 15.3556 4.6825
C 6.89034 10.7608 20.371
C 7.4944 9.4968 20.2744
C 6.89499 8.40903 19.6675
C 5.67456 8.68708 18.998
C 5.11712 9.94416 18.9885
C 5.77032 11.0193 19.5832
O 5.20135 12.2458 19.4408
C 5.36367 13.1048 18.2042
C 4.39043 14.1574 17.8194
C 5.10198 15.2562 17.12
O 3.7736 14.9042 18.9357
C 7.59915 6.98521 19.6036
C 9.02223 7.23767 19.0507
C 10.1958 6.90383 19.735
C 11.456 7.20671 19.1703
C 11.4789 7.71303 17.8663
C 10.304 8.03276 17.1894
C 9.10584 7.81511 17.755
O 12.7022 8.08593 17.3067
C 7.58295 6.26664 20.9272
C 6.64912 6.11604 18.7261
C 13.2186 9.39617 16.9098
C 14.3172 9.217 15.927
C 14.9937 10.4763 15.4889
O 14.2002 9.84238 14.5202
H 7.27402 11.5715 20.9392
H 5.09772 7.91693 18.554
H 4.23371 10.0704 18.4952
H 8.44088 9.3231 20.739
H 6.3479 13.5364 18.2479
H 5.56362 12.4176 17.4017
H 3.55748 13.7524 17.2091
H 4.43332 16.1182 16.9717
H 5.57715 14.9281 16.1871
H 10.1403 6.40214 20.73
H 10.3707 8.50389 16.3041
H 8.26513 8.0302 17.1448
H 12.4095 7.00217 19.7367
H 6.64163 5.78569 21.1218
H 7.67056 7.0145 21.7413
H 8.5059 5.61235 20.9295
H 5.65453 5.96079 19.1304
H 6.99512 5.12573 18.5209
H 6.54977 6.57581 17.7335
H 13.5153 9.94039 17.7996
H 12.3889 9.95063 16.4805
H 14.9681 8.30104 16.0215
H 14.5148 11.3932 15.8773
H 16.0986 10.5715 15.4075
C 12.8414 21.3416 19.2462
C 14.019 21.3717 18.4961
C 14.5597 20.1292 18.1476
C 13.8727 18.9789 18.4893
C 12.6277 19.0118 19.1127
C 12.0881 20.216 19.5511
O 10.9136 20.4274 20.2172
C 9.67375 19.6522 19.8305
C 9.62857 18.2498 20.3016
C 10.2667 18.0968 21.6649
O 10.8768 17.3101 20.6714
C 15.9713 20.0875 17.4488
C 16.3308 18.5678 17.3815
C 15.6825 17.7419 16.4658
C 16.027 16.3959 16.3433
C 17.0489 15.847 17.093
C 17.6215 16.668 18.0811
C 17.294 17.998 18.2447
O 17.3629 14.5142 16.991
C 15.843 20.6504 15.9868
C 17.0559 20.9054 18.139
C 18.1001 13.8675 15.8838
C 19.5291 14.1507 15.7171
C 20.2402 13.6823 14.4306
O 20.658 13.1388 15.6089
H 12.446 22.2929 19.5725
H 14.2841 18.0339 18.2158
H 12.2055 18.0135 19.2229
H 14.5255 22.2914 18.2513
H 8.81139 20.2685 19.9923
H 9.5782 19.7248 18.8052
H 8.8146 17.6251 19.9346
H 9.87163 17.5392 22.5038
H 10.9011 18.9071 21.984
H 14.8915 18.2059 15.875
H 18.4317 16.2733 18.6896
H 17.6776 18.6095 19.044
H 15.5051 15.8195 15.6497
H 16.0542 21.7053 15.9022
H 14.8079 20.538 15.613
H 16.3668 20.0827 15.2517
H 18.0862 20.5657 17.9965
H 16.8704 20.9421 19.2412
H 17.0442 21.9113 17.7475
H 17.6888 14.3222 14.9471
H 17.8304 12.8358 15.7921
H 19.8698 15.0974 16.1318
H 19.7179 12.9147 13.7775
H 20.8399 14.3771 13.8812
C 15.1867 20.0756 12.644
C 16.2536 19.2918 12.1648
C 16.3607 17.9275 12.433
C 15.2498 17.3537 13.0994
C 14.1549 18.106 13.4282
C 14.0389 19.4751 13.1804
O 12.8965 20.1181 13.6732
C 11.6462 20.4711 13.1058
C 10.7696 19.4343 12.4568
C 9.73323 18.8104 13.3677
O 9.93062 20.0781 11.4543
C 17.6714 17.1903 12.0667
C 18.7657 17.2222 13.1849
C 20.0317 16.7579 12.8129
C 21.1258 16.7884 13.716
C 20.9611 17.2939 15.0066
C 19.6611 17.7446 15.3285
C 18.5764 17.7218 14.4691
O 22.0024 17.3109 15.8888
C 17.3956 15.7263 11.6803
C 18.3111 17.8418 10.8435
C 22.4993 18.3733 16.7906
C 22.3385 19.7974 16.3887
C 23.6428 20.5813 16.2479
O 22.846 20.9555 17.3271
H 15.2281 21.1039 12.3573
H 15.2367 16.2896 13.272
H 13.2955 17.597 13.8759
H 17.0524 19.8256 11.7001
H 11.132 21.0361 13.8811
H 11.7631 21.3682 12.4637
H 11.3542 18.6497 12.0452
H 9.08296 18.0262 12.9596
H 10.117 18.3884 14.224
H 20.1672 16.3529 11.8268
H 19.452 18.0741 16.2975
H 17.566 18.0814 14.6475
H 22.0734 16.3987 13.4864
H 17.1687 15.0464 12.5004
H 18.2138 15.3169 11.1041
H 16.568 15.6551 11.0055
H 17.5811 18.1047 10.074
H 19.079 17.3207 10.2703
H 18.869 18.6835 11.1427
H 23.5017 18.1542 17.0352
H 22.0811 18.1405 17.7737
H 21.3983 20.0584 15.9884
H 24.5628 20.0054 16.5264
H 23.7927 21.3726 15.4909
C 12.0051 5.97931 13.588
C 12.1266 5.05887 14.5945
C 10.9269 4.57697 15.2346
C 9.62429 5.08537 14.9122
C 9.47529 5.94552 13.8905
C 10.7156 6.40208 13.2265
O 10.5975 7.21049 12.2954
C 5.64218 7.81014 13.68
C 6.50926 8.65272 14.2586
C 4.02343 14.1942 13.7694
O 4.91745 13.3371 14.5508
C 10.9756 3.41987 16.2508
C 9.67685 2.63832 16.5667
C 9.05622 1.84033 15.5395
C 7.80733 1.27823 15.6302
C 7.13842 1.36012 16.8276
C 7.66699 2.10255 17.8699
C 8.92825 2.70581 17.7092
O 5.91524 0.754819 17.0738
C 11.9942 2.31839 15.9631
C 11.4724 4.45147 17.3476
C 4.83834 0.911287 16.0783
C 4.12752 24.7344 15.4738
C 3.91431 23.5304 16.2888
O 4.65849 23.3659 15.0684
H 12.9038 6.30614 13.066
H 8.82572 4.87798 15.5931
H 8.51506 6.29325 13.6109
H 13.1119 4.79857 14.8832
H 5.34015 6.88931 14.1048
H 5.06078 8.12791 12.7682
H 7.29689 8.9961 14.8516
H 3.28446 14.6229 14.4116
H 4.54972 15.0102 13.2479
H 9.5508 1.73828 14.6034
H 7.13405 2.07454 18.7982
H 9.22842 3.36324 18.4872
H 7.38772 0.751854 14.8048
H 11.751 1.36455 16.3916
H 13.0125 2.43356 16.2933
H 11.9494 2.26297 14.8808
H 11.9226 5.39928 17.0103
H 12.2897 4.03258 17.9102
H 10.6965 4.77816 18.016
H 5.23342 1.40014 15.1972
H 4.10307 1.565 16.5709
H 3.31019 -0.011216 14.7691
H 4.45592 23.4493 17.2134
H 2.87195 23.2034 16.4496
C 10.0335 15.751 6.33525
C 10.7862 14.6133 6.5838
C 12.1688 14.5623 6.46015
C 12.799 15.8291 6.2377
C 12.0711 16.9879 6.02556
C 10.6681 16.9752 6.04296
O 9.876 18.0704 5.87927
C 9.14241 18.6683 7.10828
C 9.83937 18.4291 8.32043
C 9.72294 17.2085 8.95611
O 8.89741 18.1693 9.90956
C 13.0301 13.2597 6.55714
C 13.7482 13.0778 7.88782
C 13.3176 13.7921 9.0292
C 14.1111 13.7222 10.1635
C 15.2715 12.9892 10.2794
C 15.6459 12.2012 9.18809
C 14.867 12.2303 8.02151
O 16.0885 13.031 11.4335
C 12.1409 11.9866 6.39559
C 14.0143 13.3172 5.35929
C 16.9877 11.9632 11.7451
C 18.3807 12.0369 11.1615
C 19.4366 11.2272 11.8264
O 19.5898 12.6644 11.7233
H 8.94924 15.681 6.35301
H 13.8282 15.6988 6.27915
H 12.4973 17.9459 5.82775
H 10.2657 13.6882 6.84402
H 8.94284 19.7255 6.91456
H 8.13958 18.203 7.17928
H 10.716 19.0748 8.41072
H 10.6067 16.7679 9.42983
H 9.19494 16.4017 8.49878
H 12.4116 14.3343 9.05585
H 16.5482 11.6468 9.13243
H 15.2866 11.6987 7.22852
H 13.8333 14.2933 11.0389
H 11.6891 11.9816 5.41654
H 11.4002 11.9739 7.15995
H 12.6463 11.002 6.53601
H 14.1718 12.3306 4.93873
H 14.9851 13.6996 5.5607
H 13.6135 13.9554 4.59677
H 16.3568 11.1088 11.3986
H 17.0755 11.8728 12.8515
H 18.3931 12.2216 10.0807
H 19.3574 10.7664 12.7501
H 20.1274 10.5706 11.274
C 5.72694 16.8542 11.1917
C 5.08455 17.957 11.7253
C 3.72008 18.1284 11.4914
C 3.07214 17.1739 10.6937
C 3.73783 16.0845 10.1925
C 5.11081 15.8976 10.3915
O 5.75515 14.825 9.84225
C 6.00359 13.557 10.5242
C 7.09276 13.3834 11.5059
C 7.36558 11.941 11.8688
O 7.11895 12.7693 12.9769
C 3.05077 19.3953 12.0591
C 3.13007 19.3891 13.5832
C 3.31025 18.1618 14.2524
C 3.33768 18.1802 15.6241
C 3.25335 19.3814 16.3635
C 2.95695 20.5581 15.6625
C 2.85823 20.5581 14.2736
O 3.34867 19.3619 17.7425
C 3.90811 20.583 11.5432
C 1.58083 19.5186 11.5885
C 4.4655 19.4978 18.6645
C 5.69191 20.0301 17.993
C 6.95799 19.1603 17.9842
O 6.85202 20.1497 18.9361
H 6.76663 16.5715 11.4351
H 2.02001 17.2368 10.5577
H 3.26913 15.3188 9.53895
H 5.51801 18.6863 12.3604
H 5.0449 13.2934 10.9902
H 6.0873 12.7647 9.71873
H 7.9585 14.0309 11.2998
H 8.31252 11.4901 11.5524
H 6.62855 11.1395 11.938
H 3.34978 17.2631 13.67
H 2.73966 21.3937 16.2034
H 2.62611 21.4219 13.6712
H 3.40293 17.2954 16.2247
H 4.27186 20.445 10.5622
H 4.79841 20.6988 12.1054
H 3.35247 21.5261 11.5458
H 1.04725 20.3164 12.1089
H 1.0327 18.6756 11.9919
H 1.46949 19.6501 10.5349
H 4.72369 18.5098 19.1425
H 4.13254 20.1694 19.4502
H 5.52069 20.9564 17.4329
H 6.9888 18.0861 18.1879
H 7.73371 19.3237 17.2082
516
Atoms. Timestep: 100000
C 12.6321 21.6406 14.3371
C 13.7081 20.7369 14.5867
C 14.3466 20.7937 15.8929
C 11.8909 22.0642 15.4538
C 12.5804 22.1988 16.7211
C 13.7016 21.3984 16.9463
N 14.0651 19.8815 13.637
N 10.5311 22.3536 15.4854
C 15.7912 20.42 16.2375
C 12.3228 23.2591 17.7239
C 12.1227 24.5502 16.9257
C 15.7382 19.3862 17.4049
C 12.5289 22.2226 12.9419
H 14.1479 21.4377 17.92
H 9.98408 19.3298 11.4937
H 13.8574 19.0188 11.7523
H 16.386 21.2663 16.6042
H 16.3931 20.0977 15.4015
H 9.95496 24.8319 13.6709
H 10.0068 22.588 16.3795
H 13.1639 23.4157 18.4571
H 11.5882 23.0173 18.4448
H 13.3891 22.7342 12.6002
H 11.6733 22.8916 12.7746
H 12.5543 21.4829 12.1428
H 16.6688 18.9242 17.6533
H 14.9943 18.6453 17.2162
H 15.3737 19.7078 18.3562
H 11.8441 0.421013 17.5354
H 11.3297 24.4212 16.2364
H 12.9926 24.8628 16.3074
C 24.4798 10.1722 11.413
C 24.7785 11.4755 12.019
C 0.988958 11.8276 12.6147
C 0.299042 9.66031 10.4079
C 1.60689 10.0086 11.0276
C 1.89762 10.9063 12.0669
N 23.7566 12.5244 12.0494
N 24.9891 9.21604 9.16311
C 1.39839 12.8949 13.6326
C 2.84974 9.2789 10.5124
C 3.6592 10.1574 9.47586
C 0.373469 13.0995 14.7298
C 23.5468 9.23347 12.2284
H 2.88456 11.0348 12.3353
H 22.2701 13.1621 9.8116
H 24.1138 13.505 11.8219
H 1.66516 13.8948 13.2314
H 2.40057 12.5252 14.0105
H 0.637744 6.73012 7.97393
H 22.8499 11.625 8.71626
H 2.46233 8.33319 10.0363
H 3.50975 8.95994 11.3311
H 24.0141 8.79094 13.1033
H 23.0968 8.46795 11.6133
H 22.711 9.78661 12.6671
H 0.037747 12.261 15.3635
H 24.4212 13.3862 14.3002
H 0.67007 13.8147 15.4566
H 4.12972 9.3753 8.98705
H 4.40831 10.8149 9.94381
H 3.07139 10.8296 8.91781
C 21.2972 15.314 23.289
C 20.8035 13.9965 23.3212
C 19.7611 13.677 22.424
C 21.1998 15.9848 22.0582
C 20.3041 15.6185 21.0691
C 19.6431 14.4033 21.228
N 21.4377 12.9778 24.0909
N 22.4942 16.799 21.6365
C 18.6566 12.6352 22.7
C 20.0132 16.468 19.8224
C 18.5426 16.6449 19.4078
C 18.6816 11.5435 21.6286
C 21.9337 16.1269 24.4331
H 18.872 14.16 20.5213
H 21.0666 12.0173 24.1864
H 21.4705 12.7755 1.20492
H 17.6909 13.1248 22.7756
H 18.7815 12.2324 23.7215
H 0.175323 17.1918 22.8157
H 22.3024 17.2529 20.6623
H 20.6986 16.3648 18.9707
H 20.5772 17.4201 20.0714
H 22.962 16.3433 24.2331
H 21.9295 15.7569 0.460595
H 21.436 17.0517 24.544
H 19.2043 11.8598 20.7175
H 17.673 11.1835 21.3482
H 19.283 10.6422 21.8916
H 17.9145 17.1298 20.1837
H 18.0427 15.7196 19.109
H 18.4921 17.3133 18.5909
C 6.40512 18.2524 16.5379
C 5.85315 17.517 15.4026
C 6.51553 16.5872 14.6058
C 7.79383 18.2585 16.791
C 8.13675 16.9263 16.4676
C 7.56964 16.1519 15.3907
N 4.39243 17.7776 15.3434
N 8.64309 19.2476 17.2719
C 6.14523 16.1861 13.1813
C 9.073 16.0866 17.3902
C 9.32645 16.7104 18.7285
C 5.72249 14.7503 13.1003
C 5.52473 18.7535 17.7156
H 8.07101 15.3083 15.0075
H 2.45503 19.398 15.7345
H 0.694673 17.9429 14.6652
H 6.98425 16.3967 12.4268
H 5.41468 16.938 12.8148
H 8.98868 22.6867 18.4839
H 24.6262 16.3049 13.285
H 10.0461 15.7748 16.9382
H 8.74754 15.0113 17.4262
H 6.06038 19.2266 18.6208
H 4.97601 17.952 18.1814
H 4.73768 19.448 17.3976
H 6.52536 14.3082 12.5019
H 4.73854 14.506 12.668
H 5.76049 14.202 14.0407
H 8.5755 16.4304 19.4423
H 9.39262 17.7533 18.6807
H 10.1756 16.2838 19.2567
C 8.52796 12.4152 11.7519
C 8.73172 12.2559 13.1278
C 10.0387 12.0051 13.562
C 10.984 11.6393 12.626
C 10.7215 11.6422 11.2486
C 9.49696 12.0923 10.817
O 9.27767 12.2526 9.39077
C 9.02288 13.4393 8.63152
C 8.47253 14.5551 9.47452
C 6.99047 14.8222 9.4104
O 7.84074 15.8417 9.02556
C 10.4154 12.1485 15.0829
C 11.2301 13.456 15.3087
C 11.4209 14.4114 14.333
C 12.0906 15.6592 14.5078
C 12.5284 16.2532 15.7008
C 12.2998 15.2649 16.6696
C 11.6382 14.0011 16.485
O 13.0311 17.4734 15.9514
C 9.218 12.1846 15.9557
C 11.2324 10.9181 15.5241
C 12.048 18.7534 15.8588
C 10.6088 18.5332 16.0567
C 9.93261 19.3276 16.9287
O 24.4307 16.8907 14.1258
H 7.51879 12.7621 11.4019
H 12.0166 11.3265 12.9164
H 11.4827 11.4765 10.5379
H 7.95102 12.4977 13.8306
H 10.0207 13.6397 8.17659
H 8.39096 13.1548 7.80256
H 9.04034 14.6711 10.3767
H 6.32975 14.9104 10.285
H 6.40094 14.3585 8.5776
H 11.0787 14.1222 13.3607
H 12.5924 15.423 17.6806
H 11.5007 13.3197 17.3302
H 12.2032 16.2825 13.6445
H 8.53852 12.9937 15.7458
H 9.57454 12.2596 16.9991
H 8.61567 11.229 15.9335
H 11.461 10.2244 14.7417
H 10.7006 10.354 16.2749
H 12.2045 11.2516 15.9398
H 12.1145 18.9894 14.7946
H 12.4756 19.6225 16.3962
H 10.0164 17.8181 15.4877
H 24.1051 16.2225 14.6768
H 10.3522 20.2026 17.5021
C 22.4839 15.6097 11.3369
C 21.5942 16.155 10.4375
C 22.0211 16.5255 9.14509
C 23.3461 16.3107 8.7083
C 24.2961 15.8155 9.56882
C 23.8817 15.4757 10.9162
O 24.7672 15.0139 11.6715
C 10.1658 5.89733 12.4441
C 11.1007 6.21029 13.2652
C 22.7206 13.208 24.8319
O 22.4389 13.1341 1.24513
C 20.9678 17.0864 8.14658
C 20.4564 15.9429 7.26849
C 20.7926 14.6195 7.48134
C 20.3837 13.6025 6.59091
C 19.528 13.8936 5.54347
C 19.1046 15.2026 5.34636
C 19.6256 16.2178 6.17487
O 19.1033 12.9191 4.62833
C 19.6794 17.6968 8.75662
C 21.4898 18.2832 7.34161
C 19.9165 12.6627 3.38777
C 19.3163 12.2037 2.05654
C 19.4333 10.7436 1.828
O 20.0301 11.6569 0.899958
H 22.107 15.2446 12.2847
H 23.5807 16.6831 7.76391
H 0.298589 15.7697 9.32593
H 20.5465 16.1708 10.5031
H 9.52723 6.67769 11.977
H 9.75213 4.97249 12.4491
H 11.8354 6.48441 13.8733
H 23.5237 12.5184 24.5337
H 23.0549 14.1544 24.5218
H 21.4354 14.4035 8.32443
H 18.3512 15.3761 4.55365
H 19.2819 17.2022 6.08472
H 20.8394 12.625 6.79226
H 19.8163 18.6239 9.29558
H 19.1776 16.9768 9.37532
H 18.957 17.9777 7.96534